# System

13763 atoms
9330 bonds
5113 angles
1193 dihedrals
147 impropers

15 atom types
8 bond types
14 angle types
15 dihedral types
1 improper types
extra bond per atom 2
extra angle per atom 1
extra special per atom 2
-27.2         27.2 xlo xhi
-27.2         27.2 ylo yhi
-50  50 zlo zhi

Atoms

1	1	3	-0.115	0	-9.1962	-29.802	
2	1	3	-0.115	0	-9.9036	-28.5767	
3	1	3	0	0	-9.1962	-27.3515	
4	1	3	-0.115	0	-9.9036	-26.1262	
5	1	3	0	0	-9.1962	-24.901	
6	1	3	-0.115	0	-9.9036	-23.6757	
7	1	3	0	0	-9.1962	-22.4505	
8	1	3	-0.115	0	-9.9036	-21.2252	
9	1	3	0	0	-9.1962	-20	
10	1	13	0.15	0	-9.9036	-18.7747	
11	1	3	0	0	-9.1962	-17.5495	
12	1	3	-0.115	0	-9.9036	-16.3242	
13	1	3	0	0	-9.1962	-15.099	
14	1	13	0.15	0	-9.9036	-13.8737	
15	1	3	0	0	-9.1962	-12.6485	
16	1	3	-0.115	0	-9.9036	-11.4232	
17	1	3	-0.115	0	-9.1962	-10.198	
18	1	13	0.15	0	-7.7814	-29.802	
19	1	3	0	0	-7.074	-28.5767	
20	1	3	0	0	-7.7814	-27.3515	
21	1	3	0	0	-7.074	-26.1262	
22	1	3	0	0	-7.7814	-24.901	
23	1	3	0	0	-7.074	-23.6757	
24	1	3	0	0	-7.7814	-22.4505	
25	1	3	0	0	-7.074	-21.2252	
26	1	5	0.265	0	-7.7814	-20	
27	1	5	0.265	0	-7.074	-18.7747	
28	1	3	0	0	-7.7814	-17.5495	
29	1	3	0	0	-7.074	-16.3242	
30	1	3	0	0	-7.7814	-15.099	
31	1	3	0	0	-7.074	-13.8737	
32	1	3	0	0	-7.7814	-12.6485	
33	1	3	0	0	-7.074	-11.4232	
34	1	3	-0.115	0	-7.7814	-10.198	
35	1	13	0.15	0	-4.9518	-29.802	
36	1	5	0.265	0	-5.6592	-28.5767	
37	1	5	0.265	0	-4.9518	-27.3515	
38	1	5	0.265	0	-5.6592	-26.1262	
39	1	5	0.265	0	-4.9518	-24.901	
40	1	3	0	0	-5.6592	-23.6757	
41	1	5	0.265	0	-4.9518	-22.4505	
42	1	3	0	0	-5.6592	-21.2252	
43	1	5	0.265	0	-4.9518	-20	
44	1	5	0.265	0	-5.6592	-18.7747	
45	1	3	0	0	-4.9518	-17.5495	
46	1	3	0	0	-5.6592	-16.3242	
47	1	3	0	0	-4.9518	-15.099	
48	1	3	0	0	-5.6592	-13.8737	
49	1	3	0	0	-4.9518	-12.6485	
50	1	3	0	0	-5.6592	-11.4232	
51	1	13	0.15	0	-4.9518	-10.198	
52	1	3	-0.115	0	-3.537	-29.802	
53	1	3	0	0	-2.8296	-28.5767	
54	1	3	0	0	-3.537	-27.3515	
55	1	3	0	0	-2.8296	-26.1262	
56	1	5	0.265	0	-3.537	-24.901	
57	1	5	0.265	0	-2.8296	-23.6757	
58	1	5	0.265	0	-3.537	-22.4505	
59	1	5	0.265	0	-2.8296	-21.2252	
60	1	3	0	0	-3.537	-20	
61	1	3	0	0	-2.8296	-18.7747	
62	1	3	0	0	-3.537	-17.5495	
63	1	3	0	0	-2.8296	-16.3242	
64	1	3	0	0	-3.537	-15.099	
65	1	3	0	0	-2.8296	-13.8737	
66	1	3	0	0	-3.537	-12.6485	
67	1	3	0	0	-2.8296	-11.4232	
68	1	3	-0.115	0	-3.537	-10.198	
69	1	3	-0.115	0	-0.7074	-29.802	
70	1	3	0	0	-1.4148	-28.5767	
71	1	3	0	0	-0.7074	-27.3515	
72	1	5	0.265	0	-1.4148	-26.1262	
73	1	5	0.265	0	-0.7074	-24.901	
74	1	3	0	0	-1.4148	-23.6757	
75	1	5	0.265	0	-0.7074	-22.4505	
76	1	3	0	0	-1.4148	-21.2252	
77	1	3	0	0	-0.7074	-20	
78	1	3	0	0	-1.4148	-18.7747	
79	1	3	0	0	-0.7074	-17.5495	
80	1	3	0	0	-1.4148	-16.3242	
81	1	3	0	0	-0.7074	-15.099	
82	1	3	0	0	-1.4148	-13.8737	
83	1	3	0	0	-0.7074	-12.6485	
84	1	3	0	0	-1.4148	-11.4232	
85	1	13	0.15	0	-0.7074	-10.198	
86	1	3	-0.115	0	0.7074	-29.802	
87	1	3	0	0	1.4148	-28.5767	
88	1	5	0.265	0	0.7074	-27.3515	
89	1	5	0.265	0	1.4148	-26.1262	
90	1	3	0	0	0.7074	-24.901	
91	1	3	0	0	1.4148	-23.6757	
92	1	5	0.265	0	0.7074	-22.4505	
93	1	3	0	0	1.4148	-21.2252	
94	1	3	0	0	0.7074	-20	
95	1	3	0	0	1.4148	-18.7747	
96	1	3	0	0	0.7074	-17.5495	
97	1	3	0	0	1.4148	-16.3242	
98	1	3	0	0	0.7074	-15.099	
99	1	3	0	0	1.4148	-13.8737	
100	1	3	0	0	0.7074	-12.6485	
101	1	3	0	0	1.4148	-11.4232	
102	1	3	-0.115	0	0.7074	-10.198	
103	1	13	0.15	0	3.537	-29.802	
104	1	3	0	0	2.8296	-28.5767	
105	1	3	0	0	3.537	-27.3515	
106	1	3	0	0	2.8296	-26.1262	
107	1	5	0.265	0	3.537	-24.901	
108	1	5	0.265	0	2.8296	-23.6757	
109	1	3	0	0	3.537	-22.4505	
110	1	3	0	0	2.8296	-21.2252	
111	1	3	0	0	3.537	-20	
112	1	3	0	0	2.8296	-18.7747	
113	1	3	0	0	3.537	-17.5495	
114	1	3	0	0	2.8296	-16.3242	
115	1	3	0	0	3.537	-15.099	
116	1	3	0	0	2.8296	-13.8737	
117	1	3	0	0	3.537	-12.6485	
118	1	3	0	0	2.8296	-11.4232	
119	1	3	-0.115	0	3.537	-10.198	
120	1	13	0.15	0	4.9518	-29.802	
121	1	3	0	0	5.6592	-28.5767	
122	1	3	0	0	4.9518	-27.3515	
123	1	3	0	0	5.6592	-26.1262	
124	1	3	0	0	4.9518	-24.901	
125	1	5	0.265	0	5.6592	-23.6757	
126	1	5	0.265	0	4.9518	-22.4505	
127	1	3	0	0	5.6592	-21.2252	
128	1	3	0	0	4.9518	-20	
129	1	3	0	0	5.6592	-18.7747	
130	1	3	0	0	4.9518	-17.5495	
131	1	3	0	0	5.6592	-16.3242	
132	1	3	0	0	4.9518	-15.099	
133	1	3	0	0	5.6592	-13.8737	
134	1	3	0	0	4.9518	-12.6485	
135	1	3	0	0	5.6592	-11.4232	
136	1	3	-0.115	0	4.9518	-10.198	
137	1	3	-0.115	0	7.7814	-29.802	
138	1	3	0	0	7.074	-28.5767	
139	1	3	0	0	7.7814	-27.3515	
140	1	3	0	0	7.074	-26.1262	
141	1	3	0	0	7.7814	-24.901	
142	1	3	0	0	7.074	-23.6757	
143	1	3	0	0	7.7814	-22.4505	
144	1	3	0	0	7.074	-21.2252	
145	1	3	0	0	7.7814	-20	
146	1	3	0	0	7.074	-18.7747	
147	1	3	0	0	7.7814	-17.5495	
148	1	3	0	0	7.074	-16.3242	
149	1	3	0	0	7.7814	-15.099	
150	1	3	0	0	7.074	-13.8737	
151	1	3	0	0	7.7814	-12.6485	
152	1	3	0	0	7.074	-11.4232	
153	1	3	-0.115	0	7.7814	-10.198	
154	1	3	-0.115	0	9.1962	-29.802	
155	1	3	-0.115	0	9.9036	-28.5767	
156	1	3	0	0	9.1962	-27.3515	
157	1	3	-0.115	0	9.9036	-26.1262	
158	1	3	0	0	9.1962	-24.901	
159	1	3	-0.115	0	9.9036	-23.6757	
160	1	3	0	0	9.1962	-22.4505	
161	1	3	-0.115	0	9.9036	-21.2252	
162	1	3	0	0	9.1962	-20	
163	1	3	-0.115	0	9.9036	-18.7747	
164	1	3	0	0	9.1962	-17.5495	
165	1	13	0.15	0	9.9036	-16.3242	
166	1	3	0	0	9.1962	-15.099	
167	1	13	0.15	0	9.9036	-13.8737	
168	1	3	0	0	9.1962	-12.6485	
169	1	3	-0.115	0	9.9036	-11.4232	
170	1	13	0.15	0	9.1962	-10.198	
171	1	4	0.115	0	-10.9806	-28.5767	
172	1	4	0.115	0	-10.9806	-26.1262	
173	1	4	0.115	0	-10.9806	-23.6757	
174	1	4	0.115	0	-10.9806	-21.2252	
175	1	9	-0.585	0	-11.3036	-18.7747	
176	1	4	0.115	0	-10.9806	-16.3242	
177	1	9	-0.585	0	-11.3036	-13.8737	
178	1	4	0.115	0	-10.9806	-11.4232	
179	1	4	0.115	0	10.9806	-28.5767	
180	1	4	0.115	0	10.9806	-26.1262	
181	1	4	0.115	0	10.9806	-23.6757	
182	1	4	0.115	0	10.9806	-21.2252	
183	1	4	0.115	0	10.9806	-18.7747	
184	1	9	-0.585	0	11.3036	-16.3242	
185	1	9	-0.585	0	11.3036	-13.8737	
186	1	4	0.115	0	10.9806	-11.4232	
187	1	4	0.115	0	-9.7347	-30.7347	
188	1	9	-0.585	0	-7.0814	-31.0144	
189	1	4	0.115	0	-9.7347	-9.2652	
190	1	4	0.115	0	-7.2429	-9.2652	
191	1	9	-0.585	0	-5.6518	-31.0144	
192	1	4	0.115	0	-2.9985	-30.7347	
193	1	9	-0.585	0	-5.6518	-8.9855	
194	1	4	0.115	0	-2.9985	-9.2652	
195	1	4	0.115	0	-1.2459	-30.7347	
196	1	4	0.115	0	1.2459	-30.7347	
197	1	9	-0.585	0	-1.4074	-8.9855	
198	1	4	0.115	0	1.2459	-9.2652	
199	1	9	-0.585	0	2.837	-31.0144	
200	1	9	-0.585	0	5.6518	-31.0144	
201	1	4	0.115	0	2.9985	-9.2652	
202	1	4	0.115	0	5.4903	-9.2652	
203	1	4	0.115	0	7.2429	-30.7347	
204	1	4	0.115	0	9.7347	-30.7347	
205	1	4	0.115	0	7.2429	-9.2652	
206	1	9	-0.585	0	9.8962	-8.9855	
207	1	7	0.435	-0.7	-12.0036	-18.7747	
208	1	7	0.435	-0.7	-12.0036	-13.8737	
209	1	7	0.435	-0.7	12.0036	-16.3242	
210	1	7	0.435	0.7	12.0036	-13.8737	
211	1	7	0.435	-0.7	-6.7314	-31.6207	
212	1	7	0.435	-0.7	-6.0018	-31.6207	
213	1	7	0.435	-0.7	-6.0018	-8.3793	
214	1	7	0.435	-0.7	-1.7574	-8.3793	
215	1	7	0.435	0.7	2.487	-31.6207	
216	1	7	0.435	0.7	6.0018	-31.6207	
217	1	7	0.435	0.7	10.2462	-8.3793	
218	1	6	-0.683	1.4	-4.9518	-27.3515	
219	1	7	0.418	2.4	-4.9518	-27.3515	
220	1	6	-0.683	-1.4	-5.6592	-28.5767	
221	1	7	0.418	-2.4	-5.6592	-28.5767	
222	1	6	-0.683	1.4	-5.6592	-26.1262	
223	1	7	0.418	2.4	-5.6592	-26.1262	
224	1	6	-0.683	-1.4	-1.4148	-26.1262	
225	1	7	0.418	-2.4	-1.4148	-26.1262	
226	1	6	-0.683	-1.4	-4.9518	-24.901	
227	1	7	0.418	-2.4	-4.9518	-24.901	
228	1	6	-0.683	1.4	-2.8296	-23.6757	
229	1	7	0.418	2.4	-2.8296	-23.6757	
230	1	6	-0.683	1.4	0.7074	-27.3515	
231	1	7	0.418	2.4	0.7074	-27.3515	
232	1	6	-0.683	-1.4	-0.7074	-24.901	
233	1	7	0.418	-2.4	-0.7074	-24.901	
234	1	6	-0.683	1.4	0.7074	-22.4505	
235	1	7	0.418	2.4	0.7074	-22.4505	
236	1	6	-0.683	-1.4	1.4148	-26.1262	
237	1	7	0.418	-2.4	1.4148	-26.1262	
238	1	6	-0.683	1.4	-0.7074	-22.4505	
239	1	7	0.418	2.4	-0.7074	-22.4505	
240	1	6	-0.683	-1.4	-3.537	-22.4505	
241	1	7	0.418	-2.4	-3.537	-22.4505	
242	1	6	-0.683	1.4	-4.9518	-22.4505	
243	1	7	0.418	2.4	-4.9518	-22.4505	
244	1	6	-0.683	-1.4	-4.9518	-20	
245	1	7	0.418	-2.4	-4.9518	-20	
246	1	6	-0.683	-1.4	-3.537	-24.901	
247	1	7	0.418	-2.4	-3.537	-24.901	
248	1	6	-0.683	-1.4	2.8296	-23.6757	
249	1	7	0.418	-2.4	2.8296	-23.6757	
250	1	6	-0.683	1.4	-7.7814	-20	
251	1	7	0.418	2.4	-7.7814	-20	
252	1	6	-0.683	1.4	3.537	-24.901	
253	1	7	0.418	2.4	3.537	-24.901	
254	1	6	-0.683	1.4	4.9518	-22.4505	
255	1	7	0.418	2.4	4.9518	-22.4505	
256	1	6	-0.683	-1.4	-7.074	-18.7747	
257	1	7	0.418	-2.4	-7.074	-18.7747	
258	1	6	-0.683	1.4	5.6592	-23.6757	
259	1	7	0.418	2.4	5.6592	-23.6757	
260	1	6	-0.683	1.4	-5.6592	-18.7747	
261	1	7	0.418	2.4	-5.6592	-18.7747	
262	1	6	-0.683	-1.4	-2.8296	-21.2252	
263	1	7	0.418	-2.4	-2.8296	-21.2252	
264	2	1	-0.8476	-26.334	-26.3753	-45.9754	
265	2	2	0.4238	-25.334	-26.3753	-45.9754	
266	2	2	0.4238	-26.6673	-25.4325	-45.9754	
267	3	1	-0.8476	-22.9294	-26.3503	-45.9739	
268	3	2	0.4238	-21.9294	-26.3503	-45.9739	
269	3	2	0.4238	-23.2627	-25.4075	-45.9739	
270	4	1	-0.8476	-19.5473	-26.3918	-46.0293	
271	4	2	0.4238	-18.5473	-26.3918	-46.0293	
272	4	2	0.4238	-19.8806	-25.449	-46.0293	
273	5	1	-0.8476	-16.1432	-26.399	-45.9777	
274	5	2	0.4238	-15.1432	-26.399	-45.9777	
275	5	2	0.4238	-16.4765	-25.4562	-45.9777	
276	6	1	-0.8476	-12.7004	-26.3086	-45.9667	
277	6	2	0.4238	-11.7004	-26.3086	-45.9667	
278	6	2	0.4238	-13.0337	-25.3658	-45.9667	
279	7	1	-0.8476	-9.3941	-26.3234	-46.0172	
280	7	2	0.4238	-8.3941	-26.3234	-46.0172	
281	7	2	0.4238	-9.7274	-25.3806	-46.0172	
282	8	1	-0.8476	-5.992	-26.3293	-46.0248	
283	8	2	0.4238	-4.992	-26.3293	-46.0248	
284	8	2	0.4238	-6.3253	-25.3865	-46.0248	
285	9	1	-0.8476	-2.5323	-26.3185	-46.0174	
286	9	2	0.4238	-1.5323	-26.3185	-46.0174	
287	9	2	0.4238	-2.8656	-25.3757	-46.0174	
288	10	1	-0.8476	0.83806	-26.3595	-46.0064	
289	10	2	0.4238	1.8381	-26.3595	-46.0064	
290	10	2	0.4238	0.50475	-25.4167	-46.0064	
291	11	1	-0.8476	4.2288	-26.3769	-46.0288	
292	11	2	0.4238	5.2288	-26.3769	-46.0288	
293	11	2	0.4238	3.8955	-25.4341	-46.0288	
294	12	1	-0.8476	7.6776	-26.3101	-45.9772	
295	12	2	0.4238	8.6776	-26.3101	-45.9772	
296	12	2	0.4238	7.3443	-25.3673	-45.9772	
297	13	1	-0.8476	11.0108	-26.3165	-45.973	
298	13	2	0.4238	12.0108	-26.3165	-45.973	
299	13	2	0.4238	10.6775	-25.3737	-45.973	
300	14	1	-0.8476	14.4842	-26.3864	-46.014	
301	14	2	0.4238	15.4842	-26.3864	-46.014	
302	14	2	0.4238	14.1509	-25.4436	-46.014	
303	15	1	-0.8476	17.8533	-26.3218	-45.9616	
304	15	2	0.4238	18.8533	-26.3218	-45.9616	
305	15	2	0.4238	17.52	-25.379	-45.9616	
306	16	1	-0.8476	21.238	-26.3562	-46.047	
307	16	2	0.4238	22.238	-26.3562	-46.047	
308	16	2	0.4238	20.9046	-25.4134	-46.047	
309	17	1	-0.8476	24.6916	-26.3421	-45.9766	
310	17	2	0.4238	25.6916	-26.3421	-45.9766	
311	17	2	0.4238	24.3583	-25.3993	-45.9766	
312	18	1	-0.8476	-26.333	-22.9997	-46.009	
313	18	2	0.4238	-25.333	-22.9997	-46.009	
314	18	2	0.4238	-26.6663	-22.0569	-46.009	
315	19	1	-0.8476	-22.9011	-22.9976	-46.029	
316	19	2	0.4238	-21.9011	-22.9976	-46.029	
317	19	2	0.4238	-23.2344	-22.0548	-46.029	
318	20	1	-0.8476	-19.5321	-22.9446	-45.9938	
319	20	2	0.4238	-18.5321	-22.9446	-45.9938	
320	20	2	0.4238	-19.8654	-22.0018	-45.9938	
321	21	1	-0.8476	-16.1571	-22.9803	-46.0104	
322	21	2	0.4238	-15.1571	-22.9803	-46.0104	
323	21	2	0.4238	-16.4904	-22.0375	-46.0104	
324	22	1	-0.8476	-12.7375	-22.9601	-45.983	
325	22	2	0.4238	-11.7375	-22.9601	-45.983	
326	22	2	0.4238	-13.0708	-22.0173	-45.983	
327	23	1	-0.8476	-9.3752	-22.9131	-45.9985	
328	23	2	0.4238	-8.3752	-22.9131	-45.9985	
329	23	2	0.4238	-9.7085	-21.9703	-45.9985	
330	24	1	-0.8476	-5.918	-22.9285	-46.0019	
331	24	2	0.4238	-4.918	-22.9285	-46.0019	
332	24	2	0.4238	-6.2513	-21.9857	-46.0019	
333	25	1	-0.8476	-2.5249	-22.939	-45.9537	
334	25	2	0.4238	-1.5249	-22.939	-45.9537	
335	25	2	0.4238	-2.8582	-21.9962	-45.9537	
336	26	1	-0.8476	0.88475	-22.9692	-46.0297	
337	26	2	0.4238	1.8847	-22.9692	-46.0297	
338	26	2	0.4238	0.55144	-22.0264	-46.0297	
339	27	1	-0.8476	4.234	-22.9347	-45.992	
340	27	2	0.4238	5.234	-22.9347	-45.992	
341	27	2	0.4238	3.9007	-21.9919	-45.992	
342	28	1	-0.8476	7.6716	-22.9887	-45.9611	
343	28	2	0.4238	8.6716	-22.9887	-45.9611	
344	28	2	0.4238	7.3383	-22.0459	-45.9611	
345	29	1	-0.8476	11.0704	-22.9163	-46.0307	
346	29	2	0.4238	12.0704	-22.9163	-46.0307	
347	29	2	0.4238	10.7371	-21.9735	-46.0307	
348	30	1	-0.8476	14.4257	-22.9962	-46.0311	
349	30	2	0.4238	15.4257	-22.9962	-46.0311	
350	30	2	0.4238	14.0924	-22.0534	-46.0311	
351	31	1	-0.8476	17.8545	-22.997	-45.9682	
352	31	2	0.4238	18.8545	-22.997	-45.9682	
353	31	2	0.4238	17.5212	-22.0542	-45.9682	
354	32	1	-0.8476	21.2232	-22.9782	-45.9997	
355	32	2	0.4238	22.2232	-22.9782	-45.9997	
356	32	2	0.4238	20.8899	-22.0354	-45.9997	
357	33	1	-0.8476	24.6381	-22.9819	-45.9959	
358	33	2	0.4238	25.6381	-22.9819	-45.9959	
359	33	2	0.4238	24.3048	-22.0391	-45.9959	
360	34	1	-0.8476	-26.38	-19.5994	-45.9515	
361	34	2	0.4238	-25.38	-19.5994	-45.9515	
362	34	2	0.4238	-26.7133	-18.6566	-45.9515	
363	35	1	-0.8476	-22.9607	-19.5215	-46.0446	
364	35	2	0.4238	-21.9607	-19.5215	-46.0446	
365	35	2	0.4238	-23.294	-18.5787	-46.0446	
366	36	1	-0.8476	-19.5515	-19.5447	-46.0283	
367	36	2	0.4238	-18.5515	-19.5447	-46.0283	
368	36	2	0.4238	-19.8848	-18.6019	-46.0283	
369	37	1	-0.8476	-16.1429	-19.5305	-45.9619	
370	37	2	0.4238	-15.1429	-19.5305	-45.9619	
371	37	2	0.4238	-16.4762	-18.5877	-45.9619	
372	38	1	-0.8476	-12.7942	-19.5323	-45.9955	
373	38	2	0.4238	-11.7942	-19.5323	-45.9955	
374	38	2	0.4238	-13.1275	-18.5895	-45.9955	
375	39	1	-0.8476	-9.3064	-19.503	-46.0208	
376	39	2	0.4238	-8.3064	-19.503	-46.0208	
377	39	2	0.4238	-9.6397	-18.5602	-46.0208	
378	40	1	-0.8476	-5.9975	-19.5069	-46.0033	
379	40	2	0.4238	-4.9975	-19.5069	-46.0033	
380	40	2	0.4238	-6.3308	-18.5641	-46.0033	
381	41	1	-0.8476	-2.5116	-19.5105	-46.0203	
382	41	2	0.4238	-1.5116	-19.5105	-46.0203	
383	41	2	0.4238	-2.845	-18.5677	-46.0203	
384	42	1	-0.8476	0.85506	-19.5006	-45.995	
385	42	2	0.4238	1.8551	-19.5006	-45.995	
386	42	2	0.4238	0.52175	-18.5578	-45.995	
387	43	1	-0.8476	4.2685	-19.5172	-45.9734	
388	43	2	0.4238	5.2685	-19.5172	-45.9734	
389	43	2	0.4238	3.9352	-18.5744	-45.9734	
390	44	1	-0.8476	7.6967	-19.5805	-45.9542	
391	44	2	0.4238	8.6967	-19.5805	-45.9542	
392	44	2	0.4238	7.3634	-18.6377	-45.9542	
393	45	1	-0.8476	11.0098	-19.5051	-46.0094	
394	45	2	0.4238	12.0098	-19.5051	-46.0094	
395	45	2	0.4238	10.6764	-18.5623	-46.0094	
396	46	1	-0.8476	14.4693	-19.5102	-46.0267	
397	46	2	0.4238	15.4693	-19.5102	-46.0267	
398	46	2	0.4238	14.136	-18.5674	-46.0267	
399	47	1	-0.8476	17.8173	-19.5828	-45.9657	
400	47	2	0.4238	18.8173	-19.5828	-45.9657	
401	47	2	0.4238	17.484	-18.64	-45.9657	
402	48	1	-0.8476	21.2227	-19.5282	-46.0003	
403	48	2	0.4238	22.2227	-19.5282	-46.0003	
404	48	2	0.4238	20.8894	-18.5854	-46.0003	
405	49	1	-0.8476	24.6233	-19.5892	-46.0398	
406	49	2	0.4238	25.6233	-19.5892	-46.0398	
407	49	2	0.4238	24.29	-18.6464	-46.0398	
408	50	1	-0.8476	-26.3648	-16.1332	-45.9549	
409	50	2	0.4238	-25.3648	-16.1332	-45.9549	
410	50	2	0.4238	-26.6982	-15.1904	-45.9549	
411	51	1	-0.8476	-22.9668	-16.106	-45.9646	
412	51	2	0.4238	-21.9668	-16.106	-45.9646	
413	51	2	0.4238	-23.3001	-15.1632	-45.9646	
414	52	1	-0.8476	-19.5681	-16.1839	-45.9831	
415	52	2	0.4238	-18.5681	-16.1839	-45.9831	
416	52	2	0.4238	-19.9014	-15.2411	-45.9831	
417	53	1	-0.8476	-16.198	-16.1158	-45.9792	
418	53	2	0.4238	-15.198	-16.1158	-45.9792	
419	53	2	0.4238	-16.5313	-15.173	-45.9792	
420	54	1	-0.8476	-12.7038	-16.1229	-45.9885	
421	54	2	0.4238	-11.7038	-16.1229	-45.9885	
422	54	2	0.4238	-13.0371	-15.1801	-45.9885	
423	55	1	-0.8476	-9.3863	-16.1223	-45.9865	
424	55	2	0.4238	-8.3863	-16.1223	-45.9865	
425	55	2	0.4238	-9.7196	-15.1795	-45.9865	
426	56	1	-0.8476	-5.9641	-16.1213	-46.02	
427	56	2	0.4238	-4.9641	-16.1213	-46.02	
428	56	2	0.4238	-6.2974	-15.1785	-46.02	
429	57	1	-0.8476	-2.5771	-16.1823	-46.024	
430	57	2	0.4238	-1.5771	-16.1823	-46.024	
431	57	2	0.4238	-2.9104	-15.2395	-46.024	
432	58	1	-0.8476	0.83115	-16.1706	-45.9502	
433	58	2	0.4238	1.8311	-16.1706	-45.9502	
434	58	2	0.4238	0.49784	-15.2278	-45.9502	
435	59	1	-0.8476	4.2438	-16.1354	-45.9926	
436	59	2	0.4238	5.2438	-16.1354	-45.9926	
437	59	2	0.4238	3.9105	-15.1926	-45.9926	
438	60	1	-0.8476	7.6912	-16.101	-45.9934	
439	60	2	0.4238	8.6912	-16.101	-45.9934	
440	60	2	0.4238	7.3579	-15.1582	-45.9934	
441	61	1	-0.8476	11.0373	-16.1287	-46.048	
442	61	2	0.4238	12.0373	-16.1287	-46.048	
443	61	2	0.4238	10.704	-15.1859	-46.048	
444	62	1	-0.8476	14.4774	-16.1667	-46.0021	
445	62	2	0.4238	15.4774	-16.1667	-46.0021	
446	62	2	0.4238	14.1441	-15.2239	-46.0021	
447	63	1	-0.8476	17.8079	-16.1933	-46.037	
448	63	2	0.4238	18.8079	-16.1933	-46.037	
449	63	2	0.4238	17.4745	-15.2505	-46.037	
450	64	1	-0.8476	21.2331	-16.1695	-45.9889	
451	64	2	0.4238	22.2331	-16.1695	-45.9889	
452	64	2	0.4238	20.8998	-15.2267	-45.9889	
453	65	1	-0.8476	24.6331	-16.1192	-45.9584	
454	65	2	0.4238	25.6331	-16.1192	-45.9584	
455	65	2	0.4238	24.2998	-15.1764	-45.9584	
456	66	1	-0.8476	-26.3941	-12.7693	-45.9631	
457	66	2	0.4238	-25.3941	-12.7693	-45.9631	
458	66	2	0.4238	-26.7275	-11.8265	-45.9631	
459	67	1	-0.8476	-22.9573	-12.7655	-45.9965	
460	67	2	0.4238	-21.9573	-12.7655	-45.9965	
461	67	2	0.4238	-23.2906	-11.8227	-45.9965	
462	68	1	-0.8476	-19.5914	-12.7219	-45.9749	
463	68	2	0.4238	-18.5914	-12.7219	-45.9749	
464	68	2	0.4238	-19.9247	-11.7791	-45.9749	
465	69	1	-0.8476	-16.1406	-12.7877	-46.0314	
466	69	2	0.4238	-15.1406	-12.7877	-46.0314	
467	69	2	0.4238	-16.4739	-11.8449	-46.0314	
468	70	1	-0.8476	-12.7761	-12.7121	-45.9883	
469	70	2	0.4238	-11.7761	-12.7121	-45.9883	
470	70	2	0.4238	-13.1094	-11.7693	-45.9883	
471	71	1	-0.8476	-9.3044	-12.7049	-45.9961	
472	71	2	0.4238	-8.3044	-12.7049	-45.9961	
473	71	2	0.4238	-9.6378	-11.7621	-45.9961	
474	72	1	-0.8476	-5.9827	-12.7674	-45.9614	
475	72	2	0.4238	-4.9827	-12.7674	-45.9614	
476	72	2	0.4238	-6.316	-11.8246	-45.9614	
477	73	1	-0.8476	-2.557	-12.7287	-46.0099	
478	73	2	0.4238	-1.557	-12.7287	-46.0099	
479	73	2	0.4238	-2.8903	-11.7859	-46.0099	
480	74	1	-0.8476	0.81281	-12.7183	-45.9766	
481	74	2	0.4238	1.8128	-12.7183	-45.9766	
482	74	2	0.4238	0.4795	-11.7755	-45.9766	
483	75	1	-0.8476	4.2516	-12.709	-45.9693	
484	75	2	0.4238	5.2516	-12.709	-45.9693	
485	75	2	0.4238	3.9182	-11.7662	-45.9693	
486	76	1	-0.8476	7.6491	-12.7716	-46.0191	
487	76	2	0.4238	8.6491	-12.7716	-46.0191	
488	76	2	0.4238	7.3158	-11.8288	-46.0191	
489	77	1	-0.8476	11.0047	-12.7112	-46.0268	
490	77	2	0.4238	12.0047	-12.7112	-46.0268	
491	77	2	0.4238	10.6714	-11.7684	-46.0268	
492	78	1	-0.8476	14.4629	-12.7395	-46.0388	
493	78	2	0.4238	15.4629	-12.7395	-46.0388	
494	78	2	0.4238	14.1296	-11.7967	-46.0388	
495	79	1	-0.8476	17.8442	-12.73	-46.0182	
496	79	2	0.4238	18.8442	-12.73	-46.0182	
497	79	2	0.4238	17.5109	-11.7872	-46.0182	
498	80	1	-0.8476	21.2714	-12.7384	-46.0037	
499	80	2	0.4238	22.2714	-12.7384	-46.0037	
500	80	2	0.4238	20.9381	-11.7956	-46.0037	
501	81	1	-0.8476	24.6248	-12.7118	-45.9534	
502	81	2	0.4238	25.6248	-12.7118	-45.9534	
503	81	2	0.4238	24.2915	-11.769	-45.9534	
504	82	1	-0.8476	-26.3436	-9.3726	-45.9979	
505	82	2	0.4238	-25.3436	-9.3726	-45.9979	
506	82	2	0.4238	-26.6769	-8.4298	-45.9979	
507	83	1	-0.8476	-22.9849	-9.3713	-46.0449	
508	83	2	0.4238	-21.9849	-9.3713	-46.0449	
509	83	2	0.4238	-23.3182	-8.4285	-46.0449	
510	84	1	-0.8476	-19.5353	-9.3517	-45.9554	
511	84	2	0.4238	-18.5353	-9.3517	-45.9554	
512	84	2	0.4238	-19.8686	-8.4089	-45.9554	
513	85	1	-0.8476	-16.1578	-9.3952	-46.0353	
514	85	2	0.4238	-15.1578	-9.3952	-46.0353	
515	85	2	0.4238	-16.4911	-8.4524	-46.0353	
516	86	1	-0.8476	-12.7087	-9.3114	-45.9794	
517	86	2	0.4238	-11.7087	-9.3114	-45.9794	
518	86	2	0.4238	-13.042	-8.3686	-45.9794	
519	87	1	-0.8476	-9.333	-9.3544	-46.0259	
520	87	2	0.4238	-8.333	-9.3544	-46.0259	
521	87	2	0.4238	-9.6663	-8.4116	-46.0259	
522	88	1	-0.8476	-5.9008	-9.3688	-46.0076	
523	88	2	0.4238	-4.9008	-9.3688	-46.0076	
524	88	2	0.4238	-6.2341	-8.426	-46.0076	
525	89	1	-0.8476	-2.5843	-9.3211	-46.0144	
526	89	2	0.4238	-1.5843	-9.3211	-46.0144	
527	89	2	0.4238	-2.9176	-8.3783	-46.0144	
528	90	1	-0.8476	0.80211	-9.3532	-45.9723	
529	90	2	0.4238	1.8021	-9.3532	-45.9723	
530	90	2	0.4238	0.4688	-8.4104	-45.9723	
531	91	1	-0.8476	4.2747	-9.3156	-45.9693	
532	91	2	0.4238	5.2747	-9.3156	-45.9693	
533	91	2	0.4238	3.9414	-8.3728	-45.9693	
534	92	1	-0.8476	7.6349	-9.3533	-45.9553	
535	92	2	0.4238	8.6349	-9.3533	-45.9553	
536	92	2	0.4238	7.3016	-8.4105	-45.9553	
537	93	1	-0.8476	11.0384	-9.3479	-46.0057	
538	93	2	0.4238	12.0384	-9.3479	-46.0057	
539	93	2	0.4238	10.7051	-8.4051	-46.0057	
540	94	1	-0.8476	14.4316	-9.3102	-45.9738	
541	94	2	0.4238	15.4316	-9.3102	-45.9738	
542	94	2	0.4238	14.0983	-8.3674	-45.9738	
543	95	1	-0.8476	17.8512	-9.3786	-46.0459	
544	95	2	0.4238	18.8512	-9.3786	-46.0459	
545	95	2	0.4238	17.5179	-8.4358	-46.0459	
546	96	1	-0.8476	21.2228	-9.3963	-46.0067	
547	96	2	0.4238	22.2228	-9.3963	-46.0067	
548	96	2	0.4238	20.8895	-8.4535	-46.0067	
549	97	1	-0.8476	24.6505	-9.357	-46.0332	
550	97	2	0.4238	25.6505	-9.357	-46.0332	
551	97	2	0.4238	24.3171	-8.4142	-46.0332	
552	98	1	-0.8476	-26.3715	-5.9179	-45.9715	
553	98	2	0.4238	-25.3715	-5.9179	-45.9715	
554	98	2	0.4238	-26.7048	-4.9751	-45.9715	
555	99	1	-0.8476	-22.9839	-5.9381	-45.9536	
556	99	2	0.4238	-21.9839	-5.9381	-45.9536	
557	99	2	0.4238	-23.3172	-4.9953	-45.9536	
558	100	1	-0.8476	-19.5078	-5.9223	-46.0307	
559	100	2	0.4238	-18.5078	-5.9223	-46.0307	
560	100	2	0.4238	-19.8411	-4.9795	-46.0307	
561	101	1	-0.8476	-16.1088	-5.9214	-46.0244	
562	101	2	0.4238	-15.1088	-5.9214	-46.0244	
563	101	2	0.4238	-16.4421	-4.9786	-46.0244	
564	102	1	-0.8476	-12.7571	-5.9457	-46.0291	
565	102	2	0.4238	-11.7571	-5.9457	-46.0291	
566	102	2	0.4238	-13.0904	-5.0029	-46.0291	
567	103	1	-0.8476	-9.335	-5.9013	-45.9979	
568	103	2	0.4238	-8.335	-5.9013	-45.9979	
569	103	2	0.4238	-9.6684	-4.9585	-45.9979	
570	104	1	-0.8476	-5.9379	-5.9691	-46.0117	
571	104	2	0.4238	-4.9379	-5.9691	-46.0117	
572	104	2	0.4238	-6.2712	-5.0263	-46.0117	
573	105	1	-0.8476	-2.5018	-5.9648	-45.995	
574	105	2	0.4238	-1.5018	-5.9648	-45.995	
575	105	2	0.4238	-2.8352	-5.022	-45.995	
576	106	1	-0.8476	0.84931	-5.9834	-46.0296	
577	106	2	0.4238	1.8493	-5.9834	-46.0296	
578	106	2	0.4238	0.516	-5.0406	-46.0296	
579	107	1	-0.8476	4.2919	-5.9772	-45.9956	
580	107	2	0.4238	5.2919	-5.9772	-45.9956	
581	107	2	0.4238	3.9586	-5.0344	-45.9956	
582	108	1	-0.8476	7.6903	-5.944	-46.0425	
583	108	2	0.4238	8.6903	-5.944	-46.0425	
584	108	2	0.4238	7.357	-5.0012	-46.0425	
585	109	1	-0.8476	11.0223	-5.9184	-45.9557	
586	109	2	0.4238	12.0223	-5.9184	-45.9557	
587	109	2	0.4238	10.689	-4.9756	-45.9557	
588	110	1	-0.8476	14.4135	-5.9376	-46.0393	
589	110	2	0.4238	15.4135	-5.9376	-46.0393	
590	110	2	0.4238	14.0802	-4.9948	-46.0393	
591	111	1	-0.8476	17.8582	-5.9064	-46.007	
592	111	2	0.4238	18.8582	-5.9064	-46.007	
593	111	2	0.4238	17.5249	-4.9636	-46.007	
594	112	1	-0.8476	21.2871	-5.9227	-46.0475	
595	112	2	0.4238	22.2871	-5.9227	-46.0475	
596	112	2	0.4238	20.9538	-4.9799	-46.0475	
597	113	1	-0.8476	24.6524	-5.954	-45.9965	
598	113	2	0.4238	25.6524	-5.954	-45.9965	
599	113	2	0.4238	24.3191	-5.0112	-45.9965	
600	114	1	-0.8476	-26.3668	-2.5003	-45.9764	
601	114	2	0.4238	-25.3668	-2.5003	-45.9764	
602	114	2	0.4238	-26.7001	-1.5575	-45.9764	
603	115	1	-0.8476	-22.9437	-2.5901	-46.0396	
604	115	2	0.4238	-21.9437	-2.5901	-46.0396	
605	115	2	0.4238	-23.277	-1.6473	-46.0396	
606	116	1	-0.8476	-19.5713	-2.5239	-46.0358	
607	116	2	0.4238	-18.5713	-2.5239	-46.0358	
608	116	2	0.4238	-19.9046	-1.5811	-46.0358	
609	117	1	-0.8476	-16.1991	-2.5302	-45.9757	
610	117	2	0.4238	-15.1991	-2.5302	-45.9757	
611	117	2	0.4238	-16.5324	-1.5874	-45.9757	
612	118	1	-0.8476	-12.7133	-2.5153	-46.0479	
613	118	2	0.4238	-11.7133	-2.5153	-46.0479	
614	118	2	0.4238	-13.0466	-1.5725	-46.0479	
615	119	1	-0.8476	-9.3655	-2.5526	-46.0221	
616	119	2	0.4238	-8.3655	-2.5526	-46.0221	
617	119	2	0.4238	-9.6988	-1.6098	-46.0221	
618	120	1	-0.8476	-5.9661	-2.5503	-45.9535	
619	120	2	0.4238	-4.9661	-2.5503	-45.9535	
620	120	2	0.4238	-6.2994	-1.6075	-45.9535	
621	121	1	-0.8476	-2.5892	-2.5748	-45.9772	
622	121	2	0.4238	-1.5892	-2.5748	-45.9772	
623	121	2	0.4238	-2.9225	-1.632	-45.9772	
624	122	1	-0.8476	0.86343	-2.5117	-46.0228	
625	122	2	0.4238	1.8634	-2.5117	-46.0228	
626	122	2	0.4238	0.53012	-1.5689	-46.0228	
627	123	1	-0.8476	4.2236	-2.5645	-45.9781	
628	123	2	0.4238	5.2236	-2.5645	-45.9781	
629	123	2	0.4238	3.8903	-1.6217	-45.9781	
630	124	1	-0.8476	7.6418	-2.5121	-46.0138	
631	124	2	0.4238	8.6418	-2.5121	-46.0138	
632	124	2	0.4238	7.3085	-1.5693	-46.0138	
633	125	1	-0.8476	11.0388	-2.5409	-45.9816	
634	125	2	0.4238	12.0388	-2.5409	-45.9816	
635	125	2	0.4238	10.7055	-1.5981	-45.9816	
636	126	1	-0.8476	14.4047	-2.5546	-46.0151	
637	126	2	0.4238	15.4047	-2.5546	-46.0151	
638	126	2	0.4238	14.0714	-1.6118	-46.0151	
639	127	1	-0.8476	17.8244	-2.5594	-46.0023	
640	127	2	0.4238	18.8244	-2.5594	-46.0023	
641	127	2	0.4238	17.4911	-1.6166	-46.0023	
642	128	1	-0.8476	21.2515	-2.5758	-45.9959	
643	128	2	0.4238	22.2515	-2.5758	-45.9959	
644	128	2	0.4238	20.9182	-1.633	-45.9959	
645	129	1	-0.8476	24.6331	-2.5991	-45.9637	
646	129	2	0.4238	25.6331	-2.5991	-45.9637	
647	129	2	0.4238	24.2997	-1.6563	-45.9637	
648	130	1	-0.8476	-26.3685	0.85895	-46.0123	
649	130	2	0.4238	-25.3685	0.85895	-46.0123	
650	130	2	0.4238	-26.7018	1.8017	-46.0123	
651	131	1	-0.8476	-22.9921	0.88778	-46.0339	
652	131	2	0.4238	-21.9921	0.88778	-46.0339	
653	131	2	0.4238	-23.3254	1.8306	-46.0339	
654	132	1	-0.8476	-19.5202	0.841	-45.9812	
655	132	2	0.4238	-18.5202	0.841	-45.9812	
656	132	2	0.4238	-19.8536	1.7838	-45.9812	
657	133	1	-0.8476	-16.136	0.82221	-46.0394	
658	133	2	0.4238	-15.136	0.82221	-46.0394	
659	133	2	0.4238	-16.4693	1.765	-46.0394	
660	134	1	-0.8476	-12.7465	0.83557	-46.0237	
661	134	2	0.4238	-11.7465	0.83557	-46.0237	
662	134	2	0.4238	-13.0798	1.7784	-46.0237	
663	135	1	-0.8476	-9.3307	0.88994	-46.0314	
664	135	2	0.4238	-8.3307	0.88994	-46.0314	
665	135	2	0.4238	-9.664	1.8327	-46.0314	
666	136	1	-0.8476	-5.9175	0.89208	-45.9702	
667	136	2	0.4238	-4.9175	0.89208	-45.9702	
668	136	2	0.4238	-6.2508	1.8349	-45.9702	
669	137	1	-0.8476	-2.5874	0.86951	-46.0052	
670	137	2	0.4238	-1.5874	0.86951	-46.0052	
671	137	2	0.4238	-2.9207	1.8123	-46.0052	
672	138	1	-0.8476	0.85834	0.87332	-45.966	
673	138	2	0.4238	1.8583	0.87332	-45.966	
674	138	2	0.4238	0.52503	1.8161	-45.966	
675	139	1	-0.8476	4.2358	0.87098	-46.0492	
676	139	2	0.4238	5.2358	0.87098	-46.0492	
677	139	2	0.4238	3.9025	1.8138	-46.0492	
678	140	1	-0.8476	7.6275	0.88933	-45.9548	
679	140	2	0.4238	8.6275	0.88933	-45.9548	
680	140	2	0.4238	7.2942	1.8321	-45.9548	
681	141	1	-0.8476	11.0401	0.89245	-45.9776	
682	141	2	0.4238	12.0401	0.89245	-45.9776	
683	141	2	0.4238	10.7068	1.8353	-45.9776	
684	142	1	-0.8476	14.4399	0.83805	-46.0322	
685	142	2	0.4238	15.4399	0.83805	-46.0322	
686	142	2	0.4238	14.1066	1.7808	-46.0322	
687	143	1	-0.8476	17.8671	0.84716	-46.0471	
688	143	2	0.4238	18.8671	0.84716	-46.0471	
689	143	2	0.4238	17.5338	1.79	-46.0471	
690	144	1	-0.8476	21.2582	0.80468	-45.9919	
691	144	2	0.4238	22.2582	0.80468	-45.9919	
692	144	2	0.4238	20.9249	1.7475	-45.9919	
693	145	1	-0.8476	24.6328	0.89226	-46.0383	
694	145	2	0.4238	25.6328	0.89226	-46.0383	
695	145	2	0.4238	24.2995	1.8351	-46.0383	
696	146	1	-0.8476	-26.3102	4.2796	-45.9683	
697	146	2	0.4238	-25.3102	4.2796	-45.9683	
698	146	2	0.4238	-26.6435	5.2224	-45.9683	
699	147	1	-0.8476	-22.9003	4.285	-45.9816	
700	147	2	0.4238	-21.9003	4.285	-45.9816	
701	147	2	0.4238	-23.2336	5.2278	-45.9816	
702	148	1	-0.8476	-19.5996	4.292	-46.0118	
703	148	2	0.4238	-18.5996	4.292	-46.0118	
704	148	2	0.4238	-19.9329	5.2348	-46.0118	
705	149	1	-0.8476	-16.1299	4.2288	-46.0281	
706	149	2	0.4238	-15.1299	4.2288	-46.0281	
707	149	2	0.4238	-16.4632	5.1716	-46.0281	
708	150	1	-0.8476	-12.7064	4.2392	-46.0437	
709	150	2	0.4238	-11.7064	4.2392	-46.0437	
710	150	2	0.4238	-13.0398	5.182	-46.0437	
711	151	1	-0.8476	-9.3213	4.2255	-46.0072	
712	151	2	0.4238	-8.3213	4.2255	-46.0072	
713	151	2	0.4238	-9.6546	5.1683	-46.0072	
714	152	1	-0.8476	-5.9389	4.2982	-46.0214	
715	152	2	0.4238	-4.9389	4.2982	-46.0214	
716	152	2	0.4238	-6.2722	5.241	-46.0214	
717	153	1	-0.8476	-2.5415	4.2485	-46.0036	
718	153	2	0.4238	-1.5415	4.2485	-46.0036	
719	153	2	0.4238	-2.8748	5.1913	-46.0036	
720	154	1	-0.8476	0.85568	4.2547	-46.0167	
721	154	2	0.4238	1.8557	4.2547	-46.0167	
722	154	2	0.4238	0.52237	5.1975	-46.0167	
723	155	1	-0.8476	4.2059	4.2175	-46.0085	
724	155	2	0.4238	5.2059	4.2175	-46.0085	
725	155	2	0.4238	3.8726	5.1603	-46.0085	
726	156	1	-0.8476	7.6356	4.2766	-45.9952	
727	156	2	0.4238	8.6356	4.2766	-45.9952	
728	156	2	0.4238	7.3023	5.2194	-45.9952	
729	157	1	-0.8476	11.0834	4.209	-46.0495	
730	157	2	0.4238	12.0834	4.209	-46.0495	
731	157	2	0.4238	10.7501	5.1518	-46.0495	
732	158	1	-0.8476	14.4782	4.2468	-45.9581	
733	158	2	0.4238	15.4782	4.2468	-45.9581	
734	158	2	0.4238	14.1449	5.1896	-45.9581	
735	159	1	-0.8476	17.856	4.2584	-46.0377	
736	159	2	0.4238	18.856	4.2584	-46.0377	
737	159	2	0.4238	17.5227	5.2012	-46.0377	
738	160	1	-0.8476	21.2295	4.299	-46.0271	
739	160	2	0.4238	22.2295	4.299	-46.0271	
740	160	2	0.4238	20.8961	5.2418	-46.0271	
741	161	1	-0.8476	24.6396	4.2295	-45.9915	
742	161	2	0.4238	25.6396	4.2295	-45.9915	
743	161	2	0.4238	24.3063	5.1723	-45.9915	
744	162	1	-0.8476	-26.3719	7.6238	-45.957	
745	162	2	0.4238	-25.3719	7.6238	-45.957	
746	162	2	0.4238	-26.7052	8.5666	-45.957	
747	163	1	-0.8476	-22.9652	7.6713	-45.9865	
748	163	2	0.4238	-21.9652	7.6713	-45.9865	
749	163	2	0.4238	-23.2986	8.6141	-45.9865	
750	164	1	-0.8476	-19.549	7.6503	-46.0127	
751	164	2	0.4238	-18.549	7.6503	-46.0127	
752	164	2	0.4238	-19.8823	8.5931	-46.0127	
753	165	1	-0.8476	-16.1624	7.6207	-45.9982	
754	165	2	0.4238	-15.1624	7.6207	-45.9982	
755	165	2	0.4238	-16.4957	8.5635	-45.9982	
756	166	1	-0.8476	-12.7076	7.6263	-46.0441	
757	166	2	0.4238	-11.7076	7.6263	-46.0441	
758	166	2	0.4238	-13.041	8.5691	-46.0441	
759	167	1	-0.8476	-9.383	7.6482	-45.9861	
760	167	2	0.4238	-8.383	7.6482	-45.9861	
761	167	2	0.4238	-9.7164	8.591	-45.9861	