# System

13763 atoms
9330 bonds
5113 angles
1193 dihedrals
147 impropers

15 atom types
8 bond types
14 angle types
15 dihedral types
1 improper types
extra bond per atom 2
extra angle per atom 1
extra special per atom 2
-27.2         27.2 xlo xhi
-27.2         27.2 ylo yhi
-50  50 zlo zhi

Atoms

1	1	3	-0.115	0	-9.1962	-3.802	
2	1	3	-0.115	0	-9.9036	-2.5767	
3	1	3	0	0	-9.1962	-1.3515	
4	1	3	-0.115	0	-9.9036	-0.12622	
5	1	3	0	0	-9.1962	1.099	
6	1	3	-0.115	0	-9.9036	2.3243	
7	1	3	0	0	-9.1962	3.5495	
8	1	3	-0.115	0	-9.9036	4.7748	
9	1	3	0	0	-9.1962	6	
10	1	13	0.15	0	-9.9036	7.2253	
11	1	3	0	0	-9.1962	8.4505	
12	1	3	-0.115	0	-9.9036	9.6758	
13	1	3	0	0	-9.1962	10.901	
14	1	13	0.15	0	-9.9036	12.1263	
15	1	3	0	0	-9.1962	13.3515	
16	1	3	-0.115	0	-9.9036	14.5768	
17	1	3	-0.115	0	-9.1962	15.802	
18	1	13	0.15	0	-7.7814	-3.802	
19	1	3	0	0	-7.074	-2.5767	
20	1	3	0	0	-7.7814	-1.3515	
21	1	3	0	0	-7.074	-0.12622	
22	1	3	0	0	-7.7814	1.099	
23	1	3	0	0	-7.074	2.3243	
24	1	3	0	0	-7.7814	3.5495	
25	1	3	0	0	-7.074	4.7748	
26	1	5	0.265	0	-7.7814	6	
27	1	5	0.265	0	-7.074	7.2253	
28	1	3	0	0	-7.7814	8.4505	
29	1	3	0	0	-7.074	9.6758	
30	1	3	0	0	-7.7814	10.901	
31	1	3	0	0	-7.074	12.1263	
32	1	3	0	0	-7.7814	13.3515	
33	1	3	0	0	-7.074	14.5768	
34	1	3	-0.115	0	-7.7814	15.802	
35	1	13	0.15	0	-4.9518	-3.802	
36	1	5	0.265	0	-5.6592	-2.5767	
37	1	5	0.265	0	-4.9518	-1.3515	
38	1	5	0.265	0	-5.6592	-0.12622	
39	1	5	0.265	0	-4.9518	1.099	
40	1	3	0	0	-5.6592	2.3243	
41	1	5	0.265	0	-4.9518	3.5495	
42	1	3	0	0	-5.6592	4.7748	
43	1	5	0.265	0	-4.9518	6	
44	1	5	0.265	0	-5.6592	7.2253	
45	1	3	0	0	-4.9518	8.4505	
46	1	3	0	0	-5.6592	9.6758	
47	1	3	0	0	-4.9518	10.901	
48	1	3	0	0	-5.6592	12.1263	
49	1	3	0	0	-4.9518	13.3515	
50	1	3	0	0	-5.6592	14.5768	
51	1	13	0.15	0	-4.9518	15.802	
52	1	3	-0.115	0	-3.537	-3.802	
53	1	3	0	0	-2.8296	-2.5767	
54	1	3	0	0	-3.537	-1.3515	
55	1	3	0	0	-2.8296	-0.12622	
56	1	5	0.265	0	-3.537	1.099	
57	1	5	0.265	0	-2.8296	2.3243	
58	1	5	0.265	0	-3.537	3.5495	
59	1	5	0.265	0	-2.8296	4.7748	
60	1	3	0	0	-3.537	6	
61	1	3	0	0	-2.8296	7.2253	
62	1	3	0	0	-3.537	8.4505	
63	1	3	0	0	-2.8296	9.6758	
64	1	3	0	0	-3.537	10.901	
65	1	3	0	0	-2.8296	12.1263	
66	1	3	0	0	-3.537	13.3515	
67	1	3	0	0	-2.8296	14.5768	
68	1	3	-0.115	0	-3.537	15.802	
69	1	3	-0.115	0	-0.7074	-3.802	
70	1	3	0	0	-1.4148	-2.5767	
71	1	3	0	0	-0.7074	-1.3515	
72	1	5	0.265	0	-1.4148	-0.12622	
73	1	5	0.265	0	-0.7074	1.099	
74	1	3	0	0	-1.4148	2.3243	
75	1	5	0.265	0	-0.7074	3.5495	
76	1	3	0	0	-1.4148	4.7748	
77	1	3	0	0	-0.7074	6	
78	1	3	0	0	-1.4148	7.2253	
79	1	3	0	0	-0.7074	8.4505	
80	1	3	0	0	-1.4148	9.6758	
81	1	3	0	0	-0.7074	10.901	
82	1	3	0	0	-1.4148	12.1263	
83	1	3	0	0	-0.7074	13.3515	
84	1	3	0	0	-1.4148	14.5768	
85	1	13	0.15	0	-0.7074	15.802	
86	1	3	-0.115	0	0.7074	-3.802	
87	1	3	0	0	1.4148	-2.5767	
88	1	5	0.265	0	0.7074	-1.3515	
89	1	5	0.265	0	1.4148	-0.12622	
90	1	3	0	0	0.7074	1.099	
91	1	3	0	0	1.4148	2.3243	
92	1	5	0.265	0	0.7074	3.5495	
93	1	3	0	0	1.4148	4.7748	
94	1	3	0	0	0.7074	6	
95	1	3	0	0	1.4148	7.2253	
96	1	3	0	0	0.7074	8.4505	
97	1	3	0	0	1.4148	9.6758	
98	1	3	0	0	0.7074	10.901	
99	1	3	0	0	1.4148	12.1263	
100	1	3	0	0	0.7074	13.3515	
101	1	3	0	0	1.4148	14.5768	
102	1	3	-0.115	0	0.7074	15.802	
103	1	13	0.15	0	3.537	-3.802	
104	1	3	0	0	2.8296	-2.5767	
105	1	3	0	0	3.537	-1.3515	
106	1	3	0	0	2.8296	-0.12622	
107	1	5	0.265	0	3.537	1.099	
108	1	5	0.265	0	2.8296	2.3243	
109	1	3	0	0	3.537	3.5495	
110	1	3	0	0	2.8296	4.7748	
111	1	3	0	0	3.537	6	
112	1	3	0	0	2.8296	7.2253	
113	1	3	0	0	3.537	8.4505	
114	1	3	0	0	2.8296	9.6758	
115	1	3	0	0	3.537	10.901	
116	1	3	0	0	2.8296	12.1263	
117	1	3	0	0	3.537	13.3515	
118	1	3	0	0	2.8296	14.5768	
119	1	3	-0.115	0	3.537	15.802	
120	1	13	0.15	0	4.9518	-3.802	
121	1	3	0	0	5.6592	-2.5767	
122	1	3	0	0	4.9518	-1.3515	
123	1	3	0	0	5.6592	-0.12622	
124	1	3	0	0	4.9518	1.099	
125	1	5	0.265	0	5.6592	2.3243	
126	1	5	0.265	0	4.9518	3.5495	
127	1	3	0	0	5.6592	4.7748	
128	1	3	0	0	4.9518	6	
129	1	3	0	0	5.6592	7.2253	
130	1	3	0	0	4.9518	8.4505	
131	1	3	0	0	5.6592	9.6758	
132	1	3	0	0	4.9518	10.901	
133	1	3	0	0	5.6592	12.1263	
134	1	3	0	0	4.9518	13.3515	
135	1	3	0	0	5.6592	14.5768	
136	1	3	-0.115	0	4.9518	15.802	
137	1	3	-0.115	0	7.7814	-3.802	
138	1	3	0	0	7.074	-2.5767	
139	1	3	0	0	7.7814	-1.3515	
140	1	3	0	0	7.074	-0.12622	
141	1	3	0	0	7.7814	1.099	
142	1	3	0	0	7.074	2.3243	
143	1	3	0	0	7.7814	3.5495	
144	1	3	0	0	7.074	4.7748	
145	1	3	0	0	7.7814	6	
146	1	3	0	0	7.074	7.2253	
147	1	3	0	0	7.7814	8.4505	
148	1	3	0	0	7.074	9.6758	
149	1	3	0	0	7.7814	10.901	
150	1	3	0	0	7.074	12.1263	
151	1	3	0	0	7.7814	13.3515	
152	1	3	0	0	7.074	14.5768	
153	1	3	-0.115	0	7.7814	15.802	
154	1	3	-0.115	0	9.1962	-3.802	
155	1	3	-0.115	0	9.9036	-2.5767	
156	1	3	0	0	9.1962	-1.3515	
157	1	3	-0.115	0	9.9036	-0.12622	
158	1	3	0	0	9.1962	1.099	
159	1	3	-0.115	0	9.9036	2.3243	
160	1	3	0	0	9.1962	3.5495	
161	1	3	-0.115	0	9.9036	4.7748	
162	1	3	0	0	9.1962	6	
163	1	3	-0.115	0	9.9036	7.2253	
164	1	3	0	0	9.1962	8.4505	
165	1	13	0.15	0	9.9036	9.6758	
166	1	3	0	0	9.1962	10.901	
167	1	13	0.15	0	9.9036	12.1263	
168	1	3	0	0	9.1962	13.3515	
169	1	3	-0.115	0	9.9036	14.5768	
170	1	13	0.15	0	9.1962	15.802	
171	1	4	0.115	0	-10.9806	-2.5767	
172	1	4	0.115	0	-10.9806	-0.12622	
173	1	4	0.115	0	-10.9806	2.3243	
174	1	4	0.115	0	-10.9806	4.7748	
175	1	9	-0.585	0	-11.3036	7.2253	
176	1	4	0.115	0	-10.9806	9.6758	
177	1	9	-0.585	0	-11.3036	12.1263	
178	1	4	0.115	0	-10.9806	14.5768	
179	1	4	0.115	0	10.9806	-2.5767	
180	1	4	0.115	0	10.9806	-0.12622	
181	1	4	0.115	0	10.9806	2.3243	
182	1	4	0.115	0	10.9806	4.7748	
183	1	4	0.115	0	10.9806	7.2253	
184	1	9	-0.585	0	11.3036	9.6758	
185	1	9	-0.585	0	11.3036	12.1263	
186	1	4	0.115	0	10.9806	14.5768	
187	1	4	0.115	0	-9.7347	-4.7347	
188	1	9	-0.585	0	-7.0814	-5.0144	
189	1	4	0.115	0	-9.7347	16.7348	
190	1	4	0.115	0	-7.2429	16.7348	
191	1	9	-0.585	0	-5.6518	-5.0144	
192	1	4	0.115	0	-2.9985	-4.7347	
193	1	9	-0.585	0	-5.6518	17.0145	
194	1	4	0.115	0	-2.9985	16.7348	
195	1	4	0.115	0	-1.2459	-4.7347	
196	1	4	0.115	0	1.2459	-4.7347	
197	1	9	-0.585	0	-1.4074	17.0145	
198	1	4	0.115	0	1.2459	16.7348	
199	1	9	-0.585	0	2.837	-5.0144	
200	1	9	-0.585	0	5.6518	-5.0144	
201	1	4	0.115	0	2.9985	16.7348	
202	1	4	0.115	0	5.4903	16.7348	
203	1	4	0.115	0	7.2429	-4.7347	
204	1	4	0.115	0	9.7347	-4.7347	
205	1	4	0.115	0	7.2429	16.7348	
206	1	9	-0.585	0	9.8962	17.0145	
207	1	7	0.435	-0.7	-12.0036	7.2253	
208	1	7	0.435	-0.7	-12.0036	12.1263	
209	1	7	0.435	-0.7	12.0036	9.6758	
210	1	7	0.435	0.7	12.0036	12.1263	
211	1	7	0.435	-0.7	-6.7314	-5.6207	
212	1	7	0.435	-0.7	-6.0018	-5.6207	
213	1	7	0.435	-0.7	-6.0018	17.6207	
214	1	7	0.435	-0.7	-1.7574	17.6207	
215	1	7	0.435	0.7	2.487	-5.6207	
216	1	7	0.435	0.7	6.0018	-5.6207	
217	1	7	0.435	0.7	10.2462	17.6207	
218	1	6	-0.683	1.4	-4.9518	-1.3515	
219	1	7	0.418	2.4	-4.9518	-1.3515	
220	1	6	-0.683	-1.4	-5.6592	-2.5767	
221	1	7	0.418	-2.4	-5.6592	-2.5767	
222	1	6	-0.683	1.4	-5.6592	-0.12622	
223	1	7	0.418	2.4	-5.6592	-0.12622	
224	1	6	-0.683	-1.4	-1.4148	-0.12622	
225	1	7	0.418	-2.4	-1.4148	-0.12622	
226	1	6	-0.683	-1.4	-4.9518	1.099	
227	1	7	0.418	-2.4	-4.9518	1.099	
228	1	6	-0.683	1.4	-2.8296	2.3243	
229	1	7	0.418	2.4	-2.8296	2.3243	
230	1	6	-0.683	1.4	0.7074	-1.3515	
231	1	7	0.418	2.4	0.7074	-1.3515	
232	1	6	-0.683	-1.4	-0.7074	1.099	
233	1	7	0.418	-2.4	-0.7074	1.099	
234	1	6	-0.683	1.4	0.7074	3.5495	
235	1	7	0.418	2.4	0.7074	3.5495	
236	1	6	-0.683	-1.4	1.4148	-0.12622	
237	1	7	0.418	-2.4	1.4148	-0.12622	
238	1	6	-0.683	1.4	-0.7074	3.5495	
239	1	7	0.418	2.4	-0.7074	3.5495	
240	1	6	-0.683	-1.4	-3.537	3.5495	
241	1	7	0.418	-2.4	-3.537	3.5495	
242	1	6	-0.683	1.4	-4.9518	3.5495	
243	1	7	0.418	2.4	-4.9518	3.5495	
244	1	6	-0.683	-1.4	-4.9518	6	
245	1	7	0.418	-2.4	-4.9518	6	
246	1	6	-0.683	-1.4	-3.537	1.099	
247	1	7	0.418	-2.4	-3.537	1.099	
248	1	6	-0.683	-1.4	2.8296	2.3243	
249	1	7	0.418	-2.4	2.8296	2.3243	
250	1	6	-0.683	1.4	-7.7814	6	
251	1	7	0.418	2.4	-7.7814	6	
252	1	6	-0.683	1.4	3.537	1.099	
253	1	7	0.418	2.4	3.537	1.099	
254	1	6	-0.683	1.4	4.9518	3.5495	
255	1	7	0.418	2.4	4.9518	3.5495	
256	1	6	-0.683	-1.4	-7.074	7.2253	
257	1	7	0.418	-2.4	-7.074	7.2253	
258	1	6	-0.683	1.4	5.6592	2.3243	
259	1	7	0.418	2.4	5.6592	2.3243	
260	1	6	-0.683	1.4	-5.6592	7.2253	
261	1	7	0.418	2.4	-5.6592	7.2253	
262	1	6	-0.683	-1.4	-2.8296	4.7748	
263	1	7	0.418	-2.4	-2.8296	4.7748	
264	2	1	-0.8476	-26.3234	-26.3656	-45.9902	
265	2	2	0.4238	-25.3234	-26.3656	-45.9902	
266	2	2	0.4238	-26.6567	-25.4228	-45.9902	
267	3	1	-0.8476	-22.9031	-26.3448	-46.0311	
268	3	2	0.4238	-21.9031	-26.3448	-46.0311	
269	3	2	0.4238	-23.2364	-25.402	-46.0311	
270	4	1	-0.8476	-19.5788	-26.3749	-45.9754	
271	4	2	0.4238	-18.5788	-26.3749	-45.9754	
272	4	2	0.4238	-19.9121	-25.4321	-45.9754	
273	5	1	-0.8476	-16.1823	-26.3014	-46.0316	
274	5	2	0.4238	-15.1823	-26.3014	-46.0316	
275	5	2	0.4238	-16.5156	-25.3586	-46.0316	
276	6	1	-0.8476	-12.7616	-26.3036	-45.9667	
277	6	2	0.4238	-11.7616	-26.3036	-45.9667	
278	6	2	0.4238	-13.0949	-25.3608	-45.9667	
279	7	1	-0.8476	-9.3144	-26.3269	-45.9522	
280	7	2	0.4238	-8.3144	-26.3269	-45.9522	
281	7	2	0.4238	-9.6477	-25.3841	-45.9522	
282	8	1	-0.8476	-5.9551	-26.366	-45.9726	
283	8	2	0.4238	-4.9551	-26.366	-45.9726	
284	8	2	0.4238	-6.2884	-25.4232	-45.9726	
285	9	1	-0.8476	-2.5969	-26.3003	-45.9964	
286	9	2	0.4238	-1.5969	-26.3003	-45.9964	
287	9	2	0.4238	-2.9302	-25.3575	-45.9964	
288	10	1	-0.8476	0.8493	-26.3617	-45.9921	
289	10	2	0.4238	1.8493	-26.3617	-45.9921	
290	10	2	0.4238	0.51599	-25.4189	-45.9921	
291	11	1	-0.8476	4.2681	-26.3163	-46.0433	
292	11	2	0.4238	5.2681	-26.3163	-46.0433	
293	11	2	0.4238	3.9348	-25.3735	-46.0433	
294	12	1	-0.8476	7.6529	-26.3879	-45.9649	
295	12	2	0.4238	8.6529	-26.3879	-45.9649	
296	12	2	0.4238	7.3196	-25.4451	-45.9649	
297	13	1	-0.8476	11.0719	-26.3229	-46.0395	
298	13	2	0.4238	12.0719	-26.3229	-46.0395	
299	13	2	0.4238	10.7386	-25.3801	-46.0395	
300	14	1	-0.8476	14.4117	-26.3302	-45.9632	
301	14	2	0.4238	15.4117	-26.3302	-45.9632	
302	14	2	0.4238	14.0784	-25.3874	-45.9632	
303	15	1	-0.8476	17.8035	-26.3761	-46.0422	
304	15	2	0.4238	18.8035	-26.3761	-46.0422	
305	15	2	0.4238	17.4702	-25.4333	-46.0422	
306	16	1	-0.8476	21.2636	-26.3687	-46.0187	
307	16	2	0.4238	22.2636	-26.3687	-46.0187	
308	16	2	0.4238	20.9303	-25.4259	-46.0187	
309	17	1	-0.8476	24.6141	-26.3129	-45.9975	
310	17	2	0.4238	25.6141	-26.3129	-45.9975	
311	17	2	0.4238	24.2808	-25.3701	-45.9975	
312	18	1	-0.8476	-26.341	-22.9414	-46.0444	
313	18	2	0.4238	-25.341	-22.9414	-46.0444	
314	18	2	0.4238	-26.6743	-21.9986	-46.0444	
315	19	1	-0.8476	-22.9219	-22.9964	-46.0284	
316	19	2	0.4238	-21.9219	-22.9964	-46.0284	
317	19	2	0.4238	-23.2552	-22.0536	-46.0284	
318	20	1	-0.8476	-19.5275	-22.9132	-45.9664	
319	20	2	0.4238	-18.5275	-22.9132	-45.9664	
320	20	2	0.4238	-19.8608	-21.9704	-45.9664	
321	21	1	-0.8476	-16.1734	-22.9205	-46.028	
322	21	2	0.4238	-15.1734	-22.9205	-46.028	
323	21	2	0.4238	-16.5068	-21.9777	-46.028	
324	22	1	-0.8476	-12.7084	-22.9888	-45.9956	
325	22	2	0.4238	-11.7084	-22.9888	-45.9956	
326	22	2	0.4238	-13.0417	-22.046	-45.9956	
327	23	1	-0.8476	-9.3174	-22.9902	-46.0311	
328	23	2	0.4238	-8.3174	-22.9902	-46.0311	
329	23	2	0.4238	-9.6507	-22.0474	-46.0311	
330	24	1	-0.8476	-5.9659	-22.9782	-46.0344	
331	24	2	0.4238	-4.9659	-22.9782	-46.0344	
332	24	2	0.4238	-6.2993	-22.0354	-46.0344	
333	25	1	-0.8476	-2.5021	-22.987	-45.9886	
334	25	2	0.4238	-1.5021	-22.987	-45.9886	
335	25	2	0.4238	-2.8354	-22.0442	-45.9886	
336	26	1	-0.8476	0.87382	-22.933	-46.0124	
337	26	2	0.4238	1.8738	-22.933	-46.0124	
338	26	2	0.4238	0.54051	-21.9902	-46.0124	
339	27	1	-0.8476	4.2266	-22.9971	-46.0356	
340	27	2	0.4238	5.2266	-22.9971	-46.0356	
341	27	2	0.4238	3.8933	-22.0543	-46.0356	
342	28	1	-0.8476	7.6865	-22.9108	-46.0119	
343	28	2	0.4238	8.6865	-22.9108	-46.0119	
344	28	2	0.4238	7.3532	-21.968	-46.0119	
345	29	1	-0.8476	11.0107	-22.9683	-45.9617	
346	29	2	0.4238	12.0107	-22.9683	-45.9617	
347	29	2	0.4238	10.6774	-22.0255	-45.9617	
348	30	1	-0.8476	14.4298	-22.9584	-46.0299	
349	30	2	0.4238	15.4298	-22.9584	-46.0299	
350	30	2	0.4238	14.0965	-22.0156	-46.0299	
351	31	1	-0.8476	17.8221	-22.993	-46.0356	
352	31	2	0.4238	18.8221	-22.993	-46.0356	
353	31	2	0.4238	17.4888	-22.0502	-46.0356	
354	32	1	-0.8476	21.2776	-22.9818	-45.98	
355	32	2	0.4238	22.2776	-22.9818	-45.98	
356	32	2	0.4238	20.9443	-22.039	-45.98	
357	33	1	-0.8476	24.6695	-22.9868	-45.9737	
358	33	2	0.4238	25.6695	-22.9868	-45.9737	
359	33	2	0.4238	24.3361	-22.044	-45.9737	
360	34	1	-0.8476	-26.3305	-19.5167	-46.0386	
361	34	2	0.4238	-25.3305	-19.5167	-46.0386	
362	34	2	0.4238	-26.6638	-18.5739	-46.0386	
363	35	1	-0.8476	-22.9371	-19.5872	-45.9513	
364	35	2	0.4238	-21.9371	-19.5872	-45.9513	
365	35	2	0.4238	-23.2704	-18.6444	-45.9513	
366	36	1	-0.8476	-19.5392	-19.5391	-46.0056	
367	36	2	0.4238	-18.5392	-19.5391	-46.0056	
368	36	2	0.4238	-19.8726	-18.5963	-46.0056	
369	37	1	-0.8476	-16.1334	-19.5365	-45.9688	
370	37	2	0.4238	-15.1334	-19.5365	-45.9688	
371	37	2	0.4238	-16.4667	-18.5937	-45.9688	
372	38	1	-0.8476	-12.7079	-19.5052	-45.982	
373	38	2	0.4238	-11.7079	-19.5052	-45.982	
374	38	2	0.4238	-13.0412	-18.5624	-45.982	
375	39	1	-0.8476	-9.3637	-19.5628	-46	
376	39	2	0.4238	-8.3637	-19.5628	-46	
377	39	2	0.4238	-9.6971	-18.62	-46	
378	40	1	-0.8476	-5.9695	-19.5588	-46.0417	
379	40	2	0.4238	-4.9695	-19.5588	-46.0417	
380	40	2	0.4238	-6.3029	-18.616	-46.0417	
381	41	1	-0.8476	-2.5957	-19.5694	-45.9887	
382	41	2	0.4238	-1.5957	-19.5694	-45.9887	
383	41	2	0.4238	-2.929	-18.6266	-45.9887	
384	42	1	-0.8476	0.85274	-19.5788	-46.0178	
385	42	2	0.4238	1.8527	-19.5788	-46.0178	
386	42	2	0.4238	0.51943	-18.636	-46.0178	
387	43	1	-0.8476	4.2595	-19.569	-45.9888	
388	43	2	0.4238	5.2595	-19.569	-45.9888	
389	43	2	0.4238	3.9262	-18.6262	-45.9888	
390	44	1	-0.8476	7.6473	-19.5856	-45.9975	
391	44	2	0.4238	8.6473	-19.5856	-45.9975	
392	44	2	0.4238	7.314	-18.6428	-45.9975	
393	45	1	-0.8476	11.076	-19.5351	-45.9949	
394	45	2	0.4238	12.076	-19.5351	-45.9949	
395	45	2	0.4238	10.7427	-18.5923	-45.9949	
396	46	1	-0.8476	14.4585	-19.5574	-46.0492	
397	46	2	0.4238	15.4585	-19.5574	-46.0492	
398	46	2	0.4238	14.1252	-18.6146	-46.0492	
399	47	1	-0.8476	17.8284	-19.5706	-45.9614	
400	47	2	0.4238	18.8284	-19.5706	-45.9614	
401	47	2	0.4238	17.4951	-18.6278	-45.9614	
402	48	1	-0.8476	21.204	-19.5116	-46.0465	
403	48	2	0.4238	22.204	-19.5116	-46.0465	
404	48	2	0.4238	20.8707	-18.5688	-46.0465	
405	49	1	-0.8476	24.6757	-19.5102	-45.9702	
406	49	2	0.4238	25.6757	-19.5102	-45.9702	
407	49	2	0.4238	24.3424	-18.5674	-45.9702	
408	50	1	-0.8476	-26.3791	-16.1088	-46.0471	
409	50	2	0.4238	-25.3791	-16.1088	-46.0471	
410	50	2	0.4238	-26.7124	-15.166	-46.0471	
411	51	1	-0.8476	-22.9758	-16.1646	-46.0453	
412	51	2	0.4238	-21.9758	-16.1646	-46.0453	
413	51	2	0.4238	-23.3091	-15.2218	-46.0453	
414	52	1	-0.8476	-19.5647	-16.1198	-45.963	
415	52	2	0.4238	-18.5647	-16.1198	-45.963	
416	52	2	0.4238	-19.8981	-15.177	-45.963	
417	53	1	-0.8476	-16.1251	-16.1458	-46.0255	
418	53	2	0.4238	-15.1251	-16.1458	-46.0255	
419	53	2	0.4238	-16.4584	-15.203	-46.0255	
420	54	1	-0.8476	-12.7125	-16.1047	-45.9675	
421	54	2	0.4238	-11.7125	-16.1047	-45.9675	
422	54	2	0.4238	-13.0458	-15.1619	-45.9675	
423	55	1	-0.8476	-9.3559	-16.1245	-46.0139	
424	55	2	0.4238	-8.3559	-16.1245	-46.0139	
425	55	2	0.4238	-9.6892	-15.1817	-46.0139	
426	56	1	-0.8476	-5.9554	-16.1745	-46.0084	
427	56	2	0.4238	-4.9554	-16.1745	-46.0084	
428	56	2	0.4238	-6.2887	-15.2317	-46.0084	
429	57	1	-0.8476	-2.5325	-16.1193	-45.9684	
430	57	2	0.4238	-1.5325	-16.1193	-45.9684	
431	57	2	0.4238	-2.8658	-15.1765	-45.9684	
432	58	1	-0.8476	0.82538	-16.1073	-46.0113	
433	58	2	0.4238	1.8254	-16.1073	-46.0113	
434	58	2	0.4238	0.49207	-15.1645	-46.0113	
435	59	1	-0.8476	4.2523	-16.197	-46.0325	
436	59	2	0.4238	5.2523	-16.197	-46.0325	
437	59	2	0.4238	3.919	-15.2542	-46.0325	
438	60	1	-0.8476	7.6407	-16.1381	-46.0416	
439	60	2	0.4238	8.6407	-16.1381	-46.0416	
440	60	2	0.4238	7.3074	-15.1953	-46.0416	
441	61	1	-0.8476	11.0131	-16.1885	-46.0292	
442	61	2	0.4238	12.0131	-16.1885	-46.0292	
443	61	2	0.4238	10.6798	-15.2457	-46.0292	
444	62	1	-0.8476	14.4279	-16.1557	-46.0414	
445	62	2	0.4238	15.4279	-16.1557	-46.0414	
446	62	2	0.4238	14.0946	-15.2129	-46.0414	
447	63	1	-0.8476	17.8992	-16.1269	-46.0025	
448	63	2	0.4238	18.8992	-16.1269	-46.0025	
449	63	2	0.4238	17.5659	-15.1841	-46.0025	
450	64	1	-0.8476	21.2289	-16.197	-45.9936	
451	64	2	0.4238	22.2289	-16.197	-45.9936	
452	64	2	0.4238	20.8956	-15.2542	-45.9936	
453	65	1	-0.8476	24.6594	-16.1536	-45.9777	
454	65	2	0.4238	25.6594	-16.1536	-45.9777	
455	65	2	0.4238	24.3261	-15.2108	-45.9777	
456	66	1	-0.8476	-26.3838	-12.7931	-46.0134	
457	66	2	0.4238	-25.3838	-12.7931	-46.0134	
458	66	2	0.4238	-26.7171	-11.8503	-46.0134	
459	67	1	-0.8476	-22.9638	-12.7102	-45.9975	
460	67	2	0.4238	-21.9638	-12.7102	-45.9975	
461	67	2	0.4238	-23.2972	-11.7674	-45.9975	
462	68	1	-0.8476	-19.5033	-12.7618	-46.0059	
463	68	2	0.4238	-18.5033	-12.7618	-46.0059	
464	68	2	0.4238	-19.8366	-11.819	-46.0059	
465	69	1	-0.8476	-16.162	-12.7311	-46.0294	
466	69	2	0.4238	-15.162	-12.7311	-46.0294	
467	69	2	0.4238	-16.4953	-11.7883	-46.0294	
468	70	1	-0.8476	-12.7399	-12.7344	-46.04	
469	70	2	0.4238	-11.7399	-12.7344	-46.04	
470	70	2	0.4238	-13.0732	-11.7916	-46.04	
471	71	1	-0.8476	-9.3087	-12.797	-46.0405	
472	71	2	0.4238	-8.3087	-12.797	-46.0405	
473	71	2	0.4238	-9.642	-11.8542	-46.0405	
474	72	1	-0.8476	-5.9575	-12.7162	-45.9734	
475	72	2	0.4238	-4.9575	-12.7162	-45.9734	
476	72	2	0.4238	-6.2908	-11.7734	-45.9734	
477	73	1	-0.8476	-2.5009	-12.776	-46.03	
478	73	2	0.4238	-1.5009	-12.776	-46.03	
479	73	2	0.4238	-2.8342	-11.8332	-46.03	
480	74	1	-0.8476	0.84241	-12.7462	-45.9662	
481	74	2	0.4238	1.8424	-12.7462	-45.9662	
482	74	2	0.4238	0.5091	-11.8034	-45.9662	
483	75	1	-0.8476	4.2263	-12.7259	-45.9852	
484	75	2	0.4238	5.2263	-12.7259	-45.9852	
485	75	2	0.4238	3.893	-11.7831	-45.9852	
486	76	1	-0.8476	7.6387	-12.7306	-45.9941	
487	76	2	0.4238	8.6387	-12.7306	-45.9941	
488	76	2	0.4238	7.3054	-11.7878	-45.9941	
489	77	1	-0.8476	11.0658	-12.7036	-46.0339	
490	77	2	0.4238	12.0658	-12.7036	-46.0339	
491	77	2	0.4238	10.7325	-11.7608	-46.0339	
492	78	1	-0.8476	14.4466	-12.7658	-46.0012	
493	78	2	0.4238	15.4466	-12.7658	-46.0012	
494	78	2	0.4238	14.1133	-11.823	-46.0012	
495	79	1	-0.8476	17.8129	-12.7539	-45.9976	
496	79	2	0.4238	18.8129	-12.7539	-45.9976	
497	79	2	0.4238	17.4795	-11.8111	-45.9976	
498	80	1	-0.8476	21.251	-12.7184	-46.0361	
499	80	2	0.4238	22.251	-12.7184	-46.0361	
500	80	2	0.4238	20.9177	-11.7756	-46.0361	
501	81	1	-0.8476	24.6599	-12.7004	-45.9649	
502	81	2	0.4238	25.6599	-12.7004	-45.9649	
503	81	2	0.4238	24.3266	-11.7576	-45.9649	
504	82	1	-0.8476	-26.3918	-9.3113	-46.0358	
505	82	2	0.4238	-25.3918	-9.3113	-46.0358	
506	82	2	0.4238	-26.7251	-8.3685	-46.0358	
507	83	1	-0.8476	-22.9449	-9.3724	-46.0224	
508	83	2	0.4238	-21.9449	-9.3724	-46.0224	
509	83	2	0.4238	-23.2782	-8.4296	-46.0224	
510	84	1	-0.8476	-19.5748	-9.3253	-46.0046	
511	84	2	0.4238	-18.5748	-9.3253	-46.0046	
512	84	2	0.4238	-19.9081	-8.3825	-46.0046	
513	85	1	-0.8476	-16.1029	-9.3021	-45.9729	
514	85	2	0.4238	-15.1029	-9.3021	-45.9729	
515	85	2	0.4238	-16.4362	-8.3593	-45.9729	
516	86	1	-0.8476	-12.7687	-9.3397	-45.9873	
517	86	2	0.4238	-11.7687	-9.3397	-45.9873	
518	86	2	0.4238	-13.102	-8.3969	-45.9873	
519	87	1	-0.8476	-9.3332	-9.3157	-45.9739	
520	87	2	0.4238	-8.3332	-9.3157	-45.9739	
521	87	2	0.4238	-9.6665	-8.3729	-45.9739	
522	88	1	-0.8476	-5.9949	-9.3939	-46.0191	
523	88	2	0.4238	-4.9949	-9.3939	-46.0191	
524	88	2	0.4238	-6.3282	-8.4511	-46.0191	
525	89	1	-0.8476	-2.599	-9.3079	-46.0065	
526	89	2	0.4238	-1.599	-9.3079	-46.0065	
527	89	2	0.4238	-2.9323	-8.3651	-46.0065	
528	90	1	-0.8476	0.89424	-9.3911	-46.0415	
529	90	2	0.4238	1.8942	-9.3911	-46.0415	
530	90	2	0.4238	0.56093	-8.4483	-46.0415	
531	91	1	-0.8476	4.2566	-9.3095	-45.9751	
532	91	2	0.4238	5.2566	-9.3095	-45.9751	
533	91	2	0.4238	3.9233	-8.3667	-45.9751	
534	92	1	-0.8476	7.6134	-9.3667	-46.0286	
535	92	2	0.4238	8.6134	-9.3667	-46.0286	
536	92	2	0.4238	7.2801	-8.4239	-46.0286	
537	93	1	-0.8476	11.0397	-9.32	-46.0481	
538	93	2	0.4238	12.0397	-9.32	-46.0481	
539	93	2	0.4238	10.7063	-8.3772	-46.0481	
540	94	1	-0.8476	14.4664	-9.3636	-45.9912	
541	94	2	0.4238	15.4664	-9.3636	-45.9912	
542	94	2	0.4238	14.1331	-8.4208	-45.9912	
543	95	1	-0.8476	17.8604	-9.3413	-45.9628	
544	95	2	0.4238	18.8604	-9.3413	-45.9628	
545	95	2	0.4238	17.5271	-8.3985	-45.9628	
546	96	1	-0.8476	21.214	-9.3071	-46.0191	
547	96	2	0.4238	22.214	-9.3071	-46.0191	
548	96	2	0.4238	20.8807	-8.3643	-46.0191	
549	97	1	-0.8476	24.6276	-9.3331	-45.9693	
550	97	2	0.4238	25.6276	-9.3331	-45.9693	
551	97	2	0.4238	24.2943	-8.3903	-45.9693	
552	98	1	-0.8476	-26.3384	-5.9981	-45.9585	
553	98	2	0.4238	-25.3384	-5.9981	-45.9585	
554	98	2	0.4238	-26.6717	-5.0553	-45.9585	
555	99	1	-0.8476	-22.9266	-5.9106	-46.0361	
556	99	2	0.4238	-21.9266	-5.9106	-46.0361	
557	99	2	0.4238	-23.2599	-4.9678	-46.0361	
558	100	1	-0.8476	-19.5828	-5.9394	-45.9645	
559	100	2	0.4238	-18.5828	-5.9394	-45.9645	
560	100	2	0.4238	-19.9162	-4.9966	-45.9645	
561	101	1	-0.8476	-16.1975	-5.9625	-45.9698	
562	101	2	0.4238	-15.1975	-5.9625	-45.9698	
563	101	2	0.4238	-16.5308	-5.0197	-45.9698	
564	102	1	-0.8476	-12.7294	-5.9749	-45.9516	
565	102	2	0.4238	-11.7294	-5.9749	-45.9516	
566	102	2	0.4238	-13.0627	-5.0321	-45.9516	
567	103	1	-0.8476	-9.3702	-5.9564	-46.039	
568	103	2	0.4238	-8.3702	-5.9564	-46.039	
569	103	2	0.4238	-9.7035	-5.0136	-46.039	
570	104	1	-0.8476	-5.9272	-5.9276	-45.9678	
571	104	2	0.4238	-4.9272	-5.9276	-45.9678	
572	104	2	0.4238	-6.2605	-4.9848	-45.9678	
573	105	1	-0.8476	-2.5657	-5.945	-46.0415	
574	105	2	0.4238	-1.5657	-5.945	-46.0415	
575	105	2	0.4238	-2.899	-5.0022	-46.0415	
576	106	1	-0.8476	0.82974	-5.9459	-46.0003	
577	106	2	0.4238	1.8297	-5.9459	-46.0003	
578	106	2	0.4238	0.49643	-5.0031	-46.0003	
579	107	1	-0.8476	4.2513	-5.9866	-45.9767	
580	107	2	0.4238	5.2513	-5.9866	-45.9767	
581	107	2	0.4238	3.918	-5.0438	-45.9767	
582	108	1	-0.8476	7.6056	-5.9103	-45.9948	
583	108	2	0.4238	8.6056	-5.9103	-45.9948	
584	108	2	0.4238	7.2723	-4.9675	-45.9948	
585	109	1	-0.8476	11.0309	-5.9094	-46.0052	
586	109	2	0.4238	12.0309	-5.9094	-46.0052	
587	109	2	0.4238	10.6976	-4.9666	-46.0052	
588	110	1	-0.8476	14.4323	-5.9648	-46.0286	
589	110	2	0.4238	15.4323	-5.9648	-46.0286	
590	110	2	0.4238	14.099	-5.022	-46.0286	
591	111	1	-0.8476	17.87	-5.9939	-45.9509	
592	111	2	0.4238	18.87	-5.9939	-45.9509	
593	111	2	0.4238	17.5367	-5.0511	-45.9509	
594	112	1	-0.8476	21.2003	-5.9179	-46.0237	
595	112	2	0.4238	22.2003	-5.9179	-46.0237	
596	112	2	0.4238	20.867	-4.9751	-46.0237	
597	113	1	-0.8476	24.6961	-5.9427	-46.0298	
598	113	2	0.4238	25.6961	-5.9427	-46.0298	
599	113	2	0.4238	24.3628	-4.9999	-46.0298	
600	114	1	-0.8476	-26.3442	-2.5821	-46.0273	
601	114	2	0.4238	-25.3442	-2.5821	-46.0273	
602	114	2	0.4238	-26.6775	-1.6393	-46.0273	
603	115	1	-0.8476	-22.9849	-2.5485	-45.9667	
604	115	2	0.4238	-21.9849	-2.5485	-45.9667	
605	115	2	0.4238	-23.3182	-1.6057	-45.9667	
606	116	1	-0.8476	-19.5493	-2.5732	-45.9727	
607	116	2	0.4238	-18.5493	-2.5732	-45.9727	
608	116	2	0.4238	-19.8826	-1.6304	-45.9727	
609	117	1	-0.8476	-16.1308	-2.5102	-46.0038	
610	117	2	0.4238	-15.1308	-2.5102	-46.0038	
611	117	2	0.4238	-16.4641	-1.5674	-46.0038	
612	118	1	-0.8476	-12.787	-2.5486	-45.9962	
613	118	2	0.4238	-11.787	-2.5486	-45.9962	
614	118	2	0.4238	-13.1203	-1.6058	-45.9962	
615	119	1	-0.8476	-9.3293	-2.5538	-46.0361	
616	119	2	0.4238	-8.3293	-2.5538	-46.0361	
617	119	2	0.4238	-9.6626	-1.611	-46.0361	
618	120	1	-0.8476	-5.9065	-2.5154	-45.9971	
619	120	2	0.4238	-4.9065	-2.5154	-45.9971	
620	120	2	0.4238	-6.2398	-1.5726	-45.9971	
621	121	1	-0.8476	-2.5728	-2.5304	-46.0147	
622	121	2	0.4238	-1.5728	-2.5304	-46.0147	
623	121	2	0.4238	-2.9061	-1.5876	-46.0147	
624	122	1	-0.8476	0.81868	-2.593	-46.0382	
625	122	2	0.4238	1.8187	-2.593	-46.0382	
626	122	2	0.4238	0.48537	-1.6502	-46.0382	
627	123	1	-0.8476	4.2661	-2.55	-46.0042	
628	123	2	0.4238	5.2661	-2.55	-46.0042	
629	123	2	0.4238	3.9328	-1.6072	-46.0042	
630	124	1	-0.8476	7.6161	-2.5214	-46.0294	
631	124	2	0.4238	8.6161	-2.5214	-46.0294	
632	124	2	0.4238	7.2828	-1.5786	-46.0294	
633	125	1	-0.8476	11.013	-2.5976	-46.0071	
634	125	2	0.4238	12.013	-2.5976	-46.0071	
635	125	2	0.4238	10.6797	-1.6548	-46.0071	
636	126	1	-0.8476	14.4416	-2.5005	-46.0188	
637	126	2	0.4238	15.4416	-2.5005	-46.0188	
638	126	2	0.4238	14.1082	-1.5577	-46.0188	
639	127	1	-0.8476	17.8098	-2.5693	-46.035	
640	127	2	0.4238	18.8098	-2.5693	-46.035	
641	127	2	0.4238	17.4765	-1.6265	-46.035	
642	128	1	-0.8476	21.2774	-2.5663	-45.9517	
643	128	2	0.4238	22.2774	-2.5663	-45.9517	
644	128	2	0.4238	20.9441	-1.6235	-45.9517	
645	129	1	-0.8476	24.6996	-2.5989	-45.9846	
646	129	2	0.4238	25.6996	-2.5989	-45.9846	
647	129	2	0.4238	24.3663	-1.6561	-45.9846	
648	130	1	-0.8476	-26.3032	0.87453	-46.0063	
649	130	2	0.4238	-25.3032	0.87453	-46.0063	
650	130	2	0.4238	-26.6365	1.8173	-46.0063	
651	131	1	-0.8476	-22.9143	0.84675	-46.0301	
652	131	2	0.4238	-21.9143	0.84675	-46.0301	
653	131	2	0.4238	-23.2477	1.7895	-46.0301	
654	132	1	-0.8476	-19.5554	0.85825	-45.9979	
655	132	2	0.4238	-18.5554	0.85825	-45.9979	
656	132	2	0.4238	-19.8887	1.801	-45.9979	
657	133	1	-0.8476	-16.1154	0.86045	-45.9532	
658	133	2	0.4238	-15.1154	0.86045	-45.9532	
659	133	2	0.4238	-16.4487	1.8033	-45.9532	
660	134	1	-0.8476	-12.7968	0.87781	-45.9625	
661	134	2	0.4238	-11.7968	0.87781	-45.9625	
662	134	2	0.4238	-13.1301	1.8206	-45.9625	
663	135	1	-0.8476	-9.313	0.86803	-46.0129	
664	135	2	0.4238	-8.313	0.86803	-46.0129	
665	135	2	0.4238	-9.6463	1.8108	-46.0129	
666	136	1	-0.8476	-5.9206	0.87702	-45.9502	
667	136	2	0.4238	-4.9206	0.87702	-45.9502	
668	136	2	0.4238	-6.2539	1.8198	-45.9502	
669	137	1	-0.8476	-2.5689	0.8624	-45.9725	
670	137	2	0.4238	-1.5689	0.8624	-45.9725	
671	137	2	0.4238	-2.9022	1.8052	-45.9725	
672	138	1	-0.8476	0.83251	0.83604	-45.9646	
673	138	2	0.4238	1.8325	0.83604	-45.9646	
674	138	2	0.4238	0.4992	1.7788	-45.9646	
675	139	1	-0.8476	4.2079	0.85279	-45.997	
676	139	2	0.4238	5.2079	0.85279	-45.997	
677	139	2	0.4238	3.8746	1.7956	-45.997	
678	140	1	-0.8476	7.6858	0.89885	-46.0171	
679	140	2	0.4238	8.6858	0.89885	-46.0171	
680	140	2	0.4238	7.3525	1.8417	-46.0171	
681	141	1	-0.8476	11.0756	0.8015	-46.02	
682	141	2	0.4238	12.0756	0.8015	-46.02	
683	141	2	0.4238	10.7423	1.7443	-46.02	
684	142	1	-0.8476	14.4602	0.8183	-46.0175	
685	142	2	0.4238	15.4602	0.8183	-46.0175	
686	142	2	0.4238	14.1269	1.7611	-46.0175	
687	143	1	-0.8476	17.8673	0.8779	-45.9983	
688	143	2	0.4238	18.8673	0.8779	-45.9983	
689	143	2	0.4238	17.534	1.8207	-45.9983	
690	144	1	-0.8476	21.2761	0.81868	-45.9766	
691	144	2	0.4238	22.2761	0.81868	-45.9766	
692	144	2	0.4238	20.9428	1.7615	-45.9766	
693	145	1	-0.8476	24.6577	0.8138	-45.9988	
694	145	2	0.4238	25.6577	0.8138	-45.9988	
695	145	2	0.4238	24.3244	1.7566	-45.9988	
696	146	1	-0.8476	-26.3816	4.2993	-46.038	
697	146	2	0.4238	-25.3816	4.2993	-46.038	
698	146	2	0.4238	-26.7149	5.2421	-46.038	
699	147	1	-0.8476	-22.9976	4.2744	-45.9726	
700	147	2	0.4238	-21.9976	4.2744	-45.9726	
701	147	2	0.4238	-23.3309	5.2172	-45.9726	
702	148	1	-0.8476	-19.5631	4.2195	-45.9697	
703	148	2	0.4238	-18.5631	4.2195	-45.9697	
704	148	2	0.4238	-19.8964	5.1623	-45.9697	
705	149	1	-0.8476	-16.1361	4.2199	-46.0326	
706	149	2	0.4238	-15.1361	4.2199	-46.0326	
707	149	2	0.4238	-16.4694	5.1627	-46.0326	
708	150	1	-0.8476	-12.7154	4.297	-45.9866	
709	150	2	0.4238	-11.7154	4.297	-45.9866	
710	150	2	0.4238	-13.0487	5.2398	-45.9866	
711	151	1	-0.8476	-9.3011	4.2017	-45.9549	
712	151	2	0.4238	-8.3011	4.2017	-45.9549	
713	151	2	0.4238	-9.6344	5.1445	-45.9549	
714	152	1	-0.8476	-5.9973	4.2484	-46.013	
715	152	2	0.4238	-4.9973	4.2484	-46.013	
716	152	2	0.4238	-6.3306	5.1912	-46.013	
717	153	1	-0.8476	-2.5948	4.247	-46.0066	
718	153	2	0.4238	-1.5948	4.247	-46.0066	
719	153	2	0.4238	-2.9281	5.1898	-46.0066	
720	154	1	-0.8476	0.89355	4.2778	-45.9963	
721	154	2	0.4238	1.8936	4.2778	-45.9963	
722	154	2	0.4238	0.56024	5.2206	-45.9963	
723	155	1	-0.8476	4.2385	4.2692	-45.9981	
724	155	2	0.4238	5.2385	4.2692	-45.9981	
725	155	2	0.4238	3.9052	5.212	-45.9981	
726	156	1	-0.8476	7.6107	4.2467	-45.9778	
727	156	2	0.4238	8.6107	4.2467	-45.9778	
728	156	2	0.4238	7.2774	5.1895	-45.9778	
729	157	1	-0.8476	11.0976	4.2003	-46.0496	
730	157	2	0.4238	12.0976	4.2003	-46.0496	
731	157	2	0.4238	10.7643	5.1431	-46.0496	
732	158	1	-0.8476	14.4278	4.264	-46.0431	
733	158	2	0.4238	15.4278	4.264	-46.0431	
734	158	2	0.4238	14.0945	5.2068	-46.0431	
735	159	1	-0.8476	17.831	4.2292	-46.0045	
736	159	2	0.4238	18.831	4.2292	-46.0045	
737	159	2	0.4238	17.4977	5.172	-46.0045	
738	160	1	-0.8476	21.2328	4.2141	-46.0301	
739	160	2	0.4238	22.2328	4.2141	-46.0301	
740	160	2	0.4238	20.8995	5.1569	-46.0301	
741	161	1	-0.8476	24.6691	4.2255	-46.001	
742	161	2	0.4238	25.6691	4.2255	-46.001	
743	161	2	0.4238	24.3358	5.1683	-46.001	
744	162	1	-0.8476	-26.3497	7.6268	-45.9536	
745	162	2	0.4238	-25.3497	7.6268	-45.9536	
746	162	2	0.4238	-26.683	8.5696	-45.9536	
747	163	1	-0.8476	-22.9871	7.6991	-46.0299	
748	163	2	0.4238	-21.9871	7.6991	-46.0299	
749	163	2	0.4238	-23.3204	8.6419	-46.0299	
750	164	1	-0.8476	-19.5546	7.6261	-45.9947	
751	164	2	0.4238	-18.5546	7.6261	-45.9947	
752	164	2	0.4238	-19.8879	8.5689	-45.9947	
753	165	1	-0.8476	-16.1709	7.6462	-45.99	
754	165	2	0.4238	-15.1709	7.6462	-45.99	
755	165	2	0.4238	-16.5042	8.589	-45.99	
756	166	1	-0.8476	-12.7205	7.6729	-45.9534	
757	166	2	0.4238	-11.7205	7.6729	-45.9534	
758	166	2	0.4238	-13.0538	8.6157	-45.9534	
759	167	1	-0.8476	-9.3267	7.6952	-46.0203	
760	167	2	0.4238	-8.3267	7.6952	-46.0203	
761	167	2	0.4238	-9.66	8.638	-46.0203	
762	168	1	-0.8476	-5.9127	7.6019	-45.9625	
763	168	2	0.4238	-4.9127	7.6019	-45.9625	
764	168	2	0.4238	-6.246	8.5447	-45.9625	
765	169	1	-0.8476	-2.5166	7.6152	-46.0048	
766	169	2	0.4238	-1.5166	7.6152	-46.0048	
767	169	2	0.4238	-2.8499	8.558	-46.0048	
768	170	1	-0.8476	0.866	7.6868	-45.9868	
769	170	2	0.4238	1.866	7.6868	-45.9868	
770	170	2	0.4238	0.53269	8.6296	-45.9868	