# System

13763 atoms
9330 bonds
5113 angles
1193 dihedrals
147 impropers

15 atom types
8 bond types
14 angle types
15 dihedral types
1 improper types
extra bond per atom 2
extra angle per atom 1
extra special per atom 2
-27.2         27.2 xlo xhi
-27.2         27.2 ylo yhi
-50  50 zlo zhi

Atoms

1	1	3	-0.115	0	-9.1962	-37.802	
2	1	3	-0.115	0	-9.9036	-36.5767	
3	1	3	0	0	-9.1962	-35.3515	
4	1	3	-0.115	0	-9.9036	-34.1262	
5	1	3	0	0	-9.1962	-32.901	
6	1	3	-0.115	0	-9.9036	-31.6757	
7	1	3	0	0	-9.1962	-30.4505	
8	1	3	-0.115	0	-9.9036	-29.2252	
9	1	3	0	0	-9.1962	-28	
10	1	13	0.15	0	-9.9036	-26.7747	
11	1	3	0	0	-9.1962	-25.5495	
12	1	3	-0.115	0	-9.9036	-24.3242	
13	1	3	0	0	-9.1962	-23.099	
14	1	13	0.15	0	-9.9036	-21.8737	
15	1	3	0	0	-9.1962	-20.6485	
16	1	3	-0.115	0	-9.9036	-19.4232	
17	1	3	-0.115	0	-9.1962	-18.198	
18	1	13	0.15	0	-7.7814	-37.802	
19	1	3	0	0	-7.074	-36.5767	
20	1	3	0	0	-7.7814	-35.3515	
21	1	3	0	0	-7.074	-34.1262	
22	1	3	0	0	-7.7814	-32.901	
23	1	3	0	0	-7.074	-31.6757	
24	1	3	0	0	-7.7814	-30.4505	
25	1	3	0	0	-7.074	-29.2252	
26	1	5	0.265	0	-7.7814	-28	
27	1	5	0.265	0	-7.074	-26.7747	
28	1	3	0	0	-7.7814	-25.5495	
29	1	3	0	0	-7.074	-24.3242	
30	1	3	0	0	-7.7814	-23.099	
31	1	3	0	0	-7.074	-21.8737	
32	1	3	0	0	-7.7814	-20.6485	
33	1	3	0	0	-7.074	-19.4232	
34	1	3	-0.115	0	-7.7814	-18.198	
35	1	13	0.15	0	-4.9518	-37.802	
36	1	5	0.265	0	-5.6592	-36.5767	
37	1	5	0.265	0	-4.9518	-35.3515	
38	1	5	0.265	0	-5.6592	-34.1262	
39	1	5	0.265	0	-4.9518	-32.901	
40	1	3	0	0	-5.6592	-31.6757	
41	1	5	0.265	0	-4.9518	-30.4505	
42	1	3	0	0	-5.6592	-29.2252	
43	1	5	0.265	0	-4.9518	-28	
44	1	5	0.265	0	-5.6592	-26.7747	
45	1	3	0	0	-4.9518	-25.5495	
46	1	3	0	0	-5.6592	-24.3242	
47	1	3	0	0	-4.9518	-23.099	
48	1	3	0	0	-5.6592	-21.8737	
49	1	3	0	0	-4.9518	-20.6485	
50	1	3	0	0	-5.6592	-19.4232	
51	1	13	0.15	0	-4.9518	-18.198	
52	1	3	-0.115	0	-3.537	-37.802	
53	1	3	0	0	-2.8296	-36.5767	
54	1	3	0	0	-3.537	-35.3515	
55	1	3	0	0	-2.8296	-34.1262	
56	1	5	0.265	0	-3.537	-32.901	
57	1	5	0.265	0	-2.8296	-31.6757	
58	1	5	0.265	0	-3.537	-30.4505	
59	1	5	0.265	0	-2.8296	-29.2252	
60	1	3	0	0	-3.537	-28	
61	1	3	0	0	-2.8296	-26.7747	
62	1	3	0	0	-3.537	-25.5495	
63	1	3	0	0	-2.8296	-24.3242	
64	1	3	0	0	-3.537	-23.099	
65	1	3	0	0	-2.8296	-21.8737	
66	1	3	0	0	-3.537	-20.6485	
67	1	3	0	0	-2.8296	-19.4232	
68	1	3	-0.115	0	-3.537	-18.198	
69	1	3	-0.115	0	-0.7074	-37.802	
70	1	3	0	0	-1.4148	-36.5767	
71	1	3	0	0	-0.7074	-35.3515	
72	1	5	0.265	0	-1.4148	-34.1262	
73	1	5	0.265	0	-0.7074	-32.901	
74	1	3	0	0	-1.4148	-31.6757	
75	1	5	0.265	0	-0.7074	-30.4505	
76	1	3	0	0	-1.4148	-29.2252	
77	1	3	0	0	-0.7074	-28	
78	1	3	0	0	-1.4148	-26.7747	
79	1	3	0	0	-0.7074	-25.5495	
80	1	3	0	0	-1.4148	-24.3242	
81	1	3	0	0	-0.7074	-23.099	
82	1	3	0	0	-1.4148	-21.8737	
83	1	3	0	0	-0.7074	-20.6485	
84	1	3	0	0	-1.4148	-19.4232	
85	1	13	0.15	0	-0.7074	-18.198	
86	1	3	-0.115	0	0.7074	-37.802	
87	1	3	0	0	1.4148	-36.5767	
88	1	5	0.265	0	0.7074	-35.3515	
89	1	5	0.265	0	1.4148	-34.1262	
90	1	3	0	0	0.7074	-32.901	
91	1	3	0	0	1.4148	-31.6757	
92	1	5	0.265	0	0.7074	-30.4505	
93	1	3	0	0	1.4148	-29.2252	
94	1	3	0	0	0.7074	-28	
95	1	3	0	0	1.4148	-26.7747	
96	1	3	0	0	0.7074	-25.5495	
97	1	3	0	0	1.4148	-24.3242	
98	1	3	0	0	0.7074	-23.099	
99	1	3	0	0	1.4148	-21.8737	
100	1	3	0	0	0.7074	-20.6485	
101	1	3	0	0	1.4148	-19.4232	
102	1	3	-0.115	0	0.7074	-18.198	
103	1	13	0.15	0	3.537	-37.802	
104	1	3	0	0	2.8296	-36.5767	
105	1	3	0	0	3.537	-35.3515	
106	1	3	0	0	2.8296	-34.1262	
107	1	5	0.265	0	3.537	-32.901	
108	1	5	0.265	0	2.8296	-31.6757	
109	1	3	0	0	3.537	-30.4505	
110	1	3	0	0	2.8296	-29.2252	
111	1	3	0	0	3.537	-28	
112	1	3	0	0	2.8296	-26.7747	
113	1	3	0	0	3.537	-25.5495	
114	1	3	0	0	2.8296	-24.3242	
115	1	3	0	0	3.537	-23.099	
116	1	3	0	0	2.8296	-21.8737	
117	1	3	0	0	3.537	-20.6485	
118	1	3	0	0	2.8296	-19.4232	
119	1	3	-0.115	0	3.537	-18.198	
120	1	13	0.15	0	4.9518	-37.802	
121	1	3	0	0	5.6592	-36.5767	
122	1	3	0	0	4.9518	-35.3515	
123	1	3	0	0	5.6592	-34.1262	
124	1	3	0	0	4.9518	-32.901	
125	1	5	0.265	0	5.6592	-31.6757	
126	1	5	0.265	0	4.9518	-30.4505	
127	1	3	0	0	5.6592	-29.2252	
128	1	3	0	0	4.9518	-28	
129	1	3	0	0	5.6592	-26.7747	
130	1	3	0	0	4.9518	-25.5495	
131	1	3	0	0	5.6592	-24.3242	
132	1	3	0	0	4.9518	-23.099	
133	1	3	0	0	5.6592	-21.8737	
134	1	3	0	0	4.9518	-20.6485	
135	1	3	0	0	5.6592	-19.4232	
136	1	3	-0.115	0	4.9518	-18.198	
137	1	3	-0.115	0	7.7814	-37.802	
138	1	3	0	0	7.074	-36.5767	
139	1	3	0	0	7.7814	-35.3515	
140	1	3	0	0	7.074	-34.1262	
141	1	3	0	0	7.7814	-32.901	
142	1	3	0	0	7.074	-31.6757	
143	1	3	0	0	7.7814	-30.4505	
144	1	3	0	0	7.074	-29.2252	
145	1	3	0	0	7.7814	-28	
146	1	3	0	0	7.074	-26.7747	
147	1	3	0	0	7.7814	-25.5495	
148	1	3	0	0	7.074	-24.3242	
149	1	3	0	0	7.7814	-23.099	
150	1	3	0	0	7.074	-21.8737	
151	1	3	0	0	7.7814	-20.6485	
152	1	3	0	0	7.074	-19.4232	
153	1	3	-0.115	0	7.7814	-18.198	
154	1	3	-0.115	0	9.1962	-37.802	
155	1	3	-0.115	0	9.9036	-36.5767	
156	1	3	0	0	9.1962	-35.3515	
157	1	3	-0.115	0	9.9036	-34.1262	
158	1	3	0	0	9.1962	-32.901	
159	1	3	-0.115	0	9.9036	-31.6757	
160	1	3	0	0	9.1962	-30.4505	
161	1	3	-0.115	0	9.9036	-29.2252	
162	1	3	0	0	9.1962	-28	
163	1	3	-0.115	0	9.9036	-26.7747	
164	1	3	0	0	9.1962	-25.5495	
165	1	13	0.15	0	9.9036	-24.3242	
166	1	3	0	0	9.1962	-23.099	
167	1	13	0.15	0	9.9036	-21.8737	
168	1	3	0	0	9.1962	-20.6485	
169	1	3	-0.115	0	9.9036	-19.4232	
170	1	13	0.15	0	9.1962	-18.198	
171	1	4	0.115	0	-10.9806	-36.5767	
172	1	4	0.115	0	-10.9806	-34.1262	
173	1	4	0.115	0	-10.9806	-31.6757	
174	1	4	0.115	0	-10.9806	-29.2252	
175	1	9	-0.585	0	-11.3036	-26.7747	
176	1	4	0.115	0	-10.9806	-24.3242	
177	1	9	-0.585	0	-11.3036	-21.8737	
178	1	4	0.115	0	-10.9806	-19.4232	
179	1	4	0.115	0	10.9806	-36.5767	
180	1	4	0.115	0	10.9806	-34.1262	
181	1	4	0.115	0	10.9806	-31.6757	
182	1	4	0.115	0	10.9806	-29.2252	
183	1	4	0.115	0	10.9806	-26.7747	
184	1	9	-0.585	0	11.3036	-24.3242	
185	1	9	-0.585	0	11.3036	-21.8737	
186	1	4	0.115	0	10.9806	-19.4232	
187	1	4	0.115	0	-9.7347	-38.7347	
188	1	9	-0.585	0	-7.0814	-39.0144	
189	1	4	0.115	0	-9.7347	-17.2652	
190	1	4	0.115	0	-7.2429	-17.2652	
191	1	9	-0.585	0	-5.6518	-39.0144	
192	1	4	0.115	0	-2.9985	-38.7347	
193	1	9	-0.585	0	-5.6518	-16.9855	
194	1	4	0.115	0	-2.9985	-17.2652	
195	1	4	0.115	0	-1.2459	-38.7347	
196	1	4	0.115	0	1.2459	-38.7347	
197	1	9	-0.585	0	-1.4074	-16.9855	
198	1	4	0.115	0	1.2459	-17.2652	
199	1	9	-0.585	0	2.837	-39.0144	
200	1	9	-0.585	0	5.6518	-39.0144	
201	1	4	0.115	0	2.9985	-17.2652	
202	1	4	0.115	0	5.4903	-17.2652	
203	1	4	0.115	0	7.2429	-38.7347	
204	1	4	0.115	0	9.7347	-38.7347	
205	1	4	0.115	0	7.2429	-17.2652	
206	1	9	-0.585	0	9.8962	-16.9855	
207	1	7	0.435	-0.7	-12.0036	-26.7747	
208	1	7	0.435	-0.7	-12.0036	-21.8737	
209	1	7	0.435	-0.7	12.0036	-24.3242	
210	1	7	0.435	0.7	12.0036	-21.8737	
211	1	7	0.435	-0.7	-6.7314	-39.6207	
212	1	7	0.435	-0.7	-6.0018	-39.6207	
213	1	7	0.435	-0.7	-6.0018	-16.3793	
214	1	7	0.435	-0.7	-1.7574	-16.3793	
215	1	7	0.435	0.7	2.487	-39.6207	
216	1	7	0.435	0.7	6.0018	-39.6207	
217	1	7	0.435	0.7	10.2462	-16.3793	
218	1	6	-0.683	1.4	-4.9518	-35.3515	
219	1	7	0.418	2.4	-4.9518	-35.3515	
220	1	6	-0.683	-1.4	-5.6592	-36.5767	
221	1	7	0.418	-2.4	-5.6592	-36.5767	
222	1	6	-0.683	1.4	-5.6592	-34.1262	
223	1	7	0.418	2.4	-5.6592	-34.1262	
224	1	6	-0.683	-1.4	-1.4148	-34.1262	
225	1	7	0.418	-2.4	-1.4148	-34.1262	
226	1	6	-0.683	-1.4	-4.9518	-32.901	
227	1	7	0.418	-2.4	-4.9518	-32.901	
228	1	6	-0.683	1.4	-2.8296	-31.6757	
229	1	7	0.418	2.4	-2.8296	-31.6757	
230	1	6	-0.683	1.4	0.7074	-35.3515	
231	1	7	0.418	2.4	0.7074	-35.3515	
232	1	6	-0.683	-1.4	-0.7074	-32.901	
233	1	7	0.418	-2.4	-0.7074	-32.901	
234	1	6	-0.683	1.4	0.7074	-30.4505	
235	1	7	0.418	2.4	0.7074	-30.4505	
236	1	6	-0.683	-1.4	1.4148	-34.1262	
237	1	7	0.418	-2.4	1.4148	-34.1262	
238	1	6	-0.683	1.4	-0.7074	-30.4505	
239	1	7	0.418	2.4	-0.7074	-30.4505	
240	1	6	-0.683	-1.4	-3.537	-30.4505	
241	1	7	0.418	-2.4	-3.537	-30.4505	
242	1	6	-0.683	1.4	-4.9518	-30.4505	
243	1	7	0.418	2.4	-4.9518	-30.4505	
244	1	6	-0.683	-1.4	-4.9518	-28	
245	1	7	0.418	-2.4	-4.9518	-28	
246	1	6	-0.683	-1.4	-3.537	-32.901	
247	1	7	0.418	-2.4	-3.537	-32.901	
248	1	6	-0.683	-1.4	2.8296	-31.6757	
249	1	7	0.418	-2.4	2.8296	-31.6757	
250	1	6	-0.683	1.4	-7.7814	-28	
251	1	7	0.418	2.4	-7.7814	-28	
252	1	6	-0.683	1.4	3.537	-32.901	
253	1	7	0.418	2.4	3.537	-32.901	
254	1	6	-0.683	1.4	4.9518	-30.4505	
255	1	7	0.418	2.4	4.9518	-30.4505	
256	1	6	-0.683	-1.4	-7.074	-26.7747	
257	1	7	0.418	-2.4	-7.074	-26.7747	
258	1	6	-0.683	1.4	5.6592	-31.6757	
259	1	7	0.418	2.4	5.6592	-31.6757	
260	1	6	-0.683	1.4	-5.6592	-26.7747	
261	1	7	0.418	2.4	-5.6592	-26.7747	
262	1	6	-0.683	-1.4	-2.8296	-29.2252	
263	1	7	0.418	-2.4	-2.8296	-29.2252	
264	2	1	-0.8476	-26.3185	-26.3094	-46.0373	
265	2	2	0.4238	-25.3185	-26.3094	-46.0373	
266	2	2	0.4238	-26.6518	-25.3666	-46.0373	
267	3	1	-0.8476	-22.9087	-26.3368	-46.0402	
268	3	2	0.4238	-21.9087	-26.3368	-46.0402	
269	3	2	0.4238	-23.242	-25.394	-46.0402	
270	4	1	-0.8476	-19.5722	-26.3453	-45.9542	
271	4	2	0.4238	-18.5722	-26.3453	-45.9542	
272	4	2	0.4238	-19.9055	-25.4025	-45.9542	
273	5	1	-0.8476	-16.1035	-26.3842	-45.9529	
274	5	2	0.4238	-15.1035	-26.3842	-45.9529	
275	5	2	0.4238	-16.4368	-25.4414	-45.9529	
276	6	1	-0.8476	-12.7043	-26.3515	-45.97	
277	6	2	0.4238	-11.7043	-26.3515	-45.97	
278	6	2	0.4238	-13.0376	-25.4087	-45.97	
279	7	1	-0.8476	-9.3858	-26.3578	-45.9584	
280	7	2	0.4238	-8.3858	-26.3578	-45.9584	
281	7	2	0.4238	-9.7191	-25.415	-45.9584	
282	8	1	-0.8476	-5.9208	-26.3041	-45.9844	
283	8	2	0.4238	-4.9208	-26.3041	-45.9844	
284	8	2	0.4238	-6.2541	-25.3613	-45.9844	
285	9	1	-0.8476	-2.5964	-26.3151	-45.9566	
286	9	2	0.4238	-1.5964	-26.3151	-45.9566	
287	9	2	0.4238	-2.9297	-25.3723	-45.9566	
288	10	1	-0.8476	0.86787	-26.3242	-45.9757	
289	10	2	0.4238	1.8679	-26.3242	-45.9757	
290	10	2	0.4238	0.53456	-25.3814	-45.9757	
291	11	1	-0.8476	4.2392	-26.3345	-46.0329	
292	11	2	0.4238	5.2392	-26.3345	-46.0329	
293	11	2	0.4238	3.9059	-25.3917	-46.0329	
294	12	1	-0.8476	7.6706	-26.3968	-46.0223	
295	12	2	0.4238	8.6706	-26.3968	-46.0223	
296	12	2	0.4238	7.3373	-25.454	-46.0223	
297	13	1	-0.8476	11.0046	-26.3903	-45.9677	
298	13	2	0.4238	12.0046	-26.3903	-45.9677	
299	13	2	0.4238	10.6713	-25.4475	-45.9677	
300	14	1	-0.8476	14.4695	-26.3683	-45.955	
301	14	2	0.4238	15.4695	-26.3683	-45.955	
302	14	2	0.4238	14.1362	-25.4255	-45.955	
303	15	1	-0.8476	17.8034	-26.3561	-46.0118	
304	15	2	0.4238	18.8034	-26.3561	-46.0118	
305	15	2	0.4238	17.4701	-25.4133	-46.0118	
306	16	1	-0.8476	21.2766	-26.3205	-46.0313	
307	16	2	0.4238	22.2766	-26.3205	-46.0313	
308	16	2	0.4238	20.9432	-25.3777	-46.0313	
309	17	1	-0.8476	24.649	-26.3554	-45.9854	
310	17	2	0.4238	25.649	-26.3554	-45.9854	
311	17	2	0.4238	24.3157	-25.4126	-45.9854	
312	18	1	-0.8476	-26.3291	-22.9245	-46.0224	
313	18	2	0.4238	-25.3291	-22.9245	-46.0224	
314	18	2	0.4238	-26.6624	-21.9817	-46.0224	
315	19	1	-0.8476	-22.932	-22.9345	-46.0337	
316	19	2	0.4238	-21.932	-22.9345	-46.0337	
317	19	2	0.4238	-23.2653	-21.9917	-46.0337	
318	20	1	-0.8476	-19.5881	-22.9502	-45.954	
319	20	2	0.4238	-18.5881	-22.9502	-45.954	
320	20	2	0.4238	-19.9214	-22.0074	-45.954	
321	21	1	-0.8476	-16.166	-22.9415	-46.0276	
322	21	2	0.4238	-15.166	-22.9415	-46.0276	
323	21	2	0.4238	-16.4993	-21.9987	-46.0276	
324	22	1	-0.8476	-12.7249	-22.9745	-45.9994	
325	22	2	0.4238	-11.7249	-22.9745	-45.9994	
326	22	2	0.4238	-13.0582	-22.0317	-45.9994	
327	23	1	-0.8476	-9.3301	-22.9109	-45.9541	
328	23	2	0.4238	-8.3301	-22.9109	-45.9541	
329	23	2	0.4238	-9.6634	-21.9681	-45.9541	
330	24	1	-0.8476	-5.9453	-22.9861	-46.0351	
331	24	2	0.4238	-4.9453	-22.9861	-46.0351	
332	24	2	0.4238	-6.2786	-22.0433	-46.0351	
333	25	1	-0.8476	-2.5742	-22.9159	-46.0246	
334	25	2	0.4238	-1.5742	-22.9159	-46.0246	
335	25	2	0.4238	-2.9076	-21.9731	-46.0246	
336	26	1	-0.8476	0.88143	-22.9756	-45.9571	
337	26	2	0.4238	1.8814	-22.9756	-45.9571	
338	26	2	0.4238	0.54812	-22.0328	-45.9571	
339	27	1	-0.8476	4.235	-22.9803	-46.0249	
340	27	2	0.4238	5.235	-22.9803	-46.0249	
341	27	2	0.4238	3.9017	-22.0375	-46.0249	
342	28	1	-0.8476	7.6616	-22.9527	-46.0148	
343	28	2	0.4238	8.6616	-22.9527	-46.0148	
344	28	2	0.4238	7.3283	-22.0099	-46.0148	
345	29	1	-0.8476	11.0831	-22.9415	-45.995	
346	29	2	0.4238	12.0831	-22.9415	-45.995	
347	29	2	0.4238	10.7498	-21.9987	-45.995	
348	30	1	-0.8476	14.4917	-22.9714	-45.9743	
349	30	2	0.4238	15.4917	-22.9714	-45.9743	
350	30	2	0.4238	14.1584	-22.0286	-45.9743	
351	31	1	-0.8476	17.8754	-22.962	-45.9932	
352	31	2	0.4238	18.8754	-22.962	-45.9932	
353	31	2	0.4238	17.5421	-22.0192	-45.9932	
354	32	1	-0.8476	21.2076	-22.9946	-45.9969	
355	32	2	0.4238	22.2076	-22.9946	-45.9969	
356	32	2	0.4238	20.8743	-22.0518	-45.9969	
357	33	1	-0.8476	24.6779	-22.9066	-46.037	
358	33	2	0.4238	25.6779	-22.9066	-46.037	
359	33	2	0.4238	24.3446	-21.9638	-46.037	
360	34	1	-0.8476	-26.3431	-19.5531	-46.0488	
361	34	2	0.4238	-25.3431	-19.5531	-46.0488	
362	34	2	0.4238	-26.6764	-18.6103	-46.0488	
363	35	1	-0.8476	-22.9663	-19.5838	-45.9706	
364	35	2	0.4238	-21.9663	-19.5838	-45.9706	
365	35	2	0.4238	-23.2996	-18.641	-45.9706	
366	36	1	-0.8476	-19.5689	-19.5471	-46.0334	
367	36	2	0.4238	-18.5689	-19.5471	-46.0334	
368	36	2	0.4238	-19.9022	-18.6043	-46.0334	
369	37	1	-0.8476	-16.1398	-19.5737	-45.9846	
370	37	2	0.4238	-15.1398	-19.5737	-45.9846	
371	37	2	0.4238	-16.4731	-18.6309	-45.9846	
372	38	1	-0.8476	-12.7311	-19.5252	-46.0049	
373	38	2	0.4238	-11.7311	-19.5252	-46.0049	
374	38	2	0.4238	-13.0644	-18.5824	-46.0049	
375	39	1	-0.8476	-9.3916	-19.5771	-45.9587	
376	39	2	0.4238	-8.3916	-19.5771	-45.9587	
377	39	2	0.4238	-9.7249	-18.6343	-45.9587	
378	40	1	-0.8476	-5.9848	-19.5174	-45.9962	
379	40	2	0.4238	-4.9848	-19.5174	-45.9962	
380	40	2	0.4238	-6.3181	-18.5746	-45.9962	
381	41	1	-0.8476	-2.5004	-19.5922	-46.0057	
382	41	2	0.4238	-1.5004	-19.5922	-46.0057	
383	41	2	0.4238	-2.8337	-18.6494	-46.0057	
384	42	1	-0.8476	0.81067	-19.5038	-46.0495	
385	42	2	0.4238	1.8107	-19.5038	-46.0495	
386	42	2	0.4238	0.47736	-18.561	-46.0495	
387	43	1	-0.8476	4.2775	-19.5183	-45.9631	
388	43	2	0.4238	5.2775	-19.5183	-45.9631	
389	43	2	0.4238	3.9442	-18.5755	-45.9631	
390	44	1	-0.8476	7.6084	-19.56	-46.024	
391	44	2	0.4238	8.6084	-19.56	-46.024	
392	44	2	0.4238	7.2751	-18.6172	-46.024	
393	45	1	-0.8476	11.08	-19.5569	-45.9589	
394	45	2	0.4238	12.08	-19.5569	-45.9589	
395	45	2	0.4238	10.7467	-18.6141	-45.9589	
396	46	1	-0.8476	14.4182	-19.5736	-46.0354	
397	46	2	0.4238	15.4182	-19.5736	-46.0354	
398	46	2	0.4238	14.0849	-18.6308	-46.0354	
399	47	1	-0.8476	17.8136	-19.5131	-45.992	
400	47	2	0.4238	18.8136	-19.5131	-45.992	
401	47	2	0.4238	17.4803	-18.5703	-45.992	
402	48	1	-0.8476	21.255	-19.5855	-45.9647	
403	48	2	0.4238	22.255	-19.5855	-45.9647	
404	48	2	0.4238	20.9217	-18.6427	-45.9647	
405	49	1	-0.8476	24.6622	-19.5649	-45.9987	
406	49	2	0.4238	25.6622	-19.5649	-45.9987	
407	49	2	0.4238	24.3289	-18.6221	-45.9987	
408	50	1	-0.8476	-26.3598	-16.1924	-46.026	
409	50	2	0.4238	-25.3598	-16.1924	-46.026	
410	50	2	0.4238	-26.6931	-15.2496	-46.026	
411	51	1	-0.8476	-22.9877	-16.1816	-46.026	
412	51	2	0.4238	-21.9877	-16.1816	-46.026	
413	51	2	0.4238	-23.321	-15.2388	-46.026	
414	52	1	-0.8476	-19.5583	-16.195	-45.9597	
415	52	2	0.4238	-18.5583	-16.195	-45.9597	
416	52	2	0.4238	-19.8916	-15.2522	-45.9597	
417	53	1	-0.8476	-16.1055	-16.1509	-46.0011	
418	53	2	0.4238	-15.1055	-16.1509	-46.0011	
419	53	2	0.4238	-16.4388	-15.2081	-46.0011	
420	54	1	-0.8476	-12.7662	-16.11	-46.0131	
421	54	2	0.4238	-11.7662	-16.11	-46.0131	
422	54	2	0.4238	-13.0995	-15.1672	-46.0131	
423	55	1	-0.8476	-9.3889	-16.122	-46.011	
424	55	2	0.4238	-8.3889	-16.122	-46.011	
425	55	2	0.4238	-9.7222	-15.1792	-46.011	
426	56	1	-0.8476	-5.9758	-16.1596	-46.0404	
427	56	2	0.4238	-4.9758	-16.1596	-46.0404	
428	56	2	0.4238	-6.3091	-15.2168	-46.0404	
429	57	1	-0.8476	-2.5868	-16.1058	-45.9544	
430	57	2	0.4238	-1.5868	-16.1058	-45.9544	
431	57	2	0.4238	-2.9201	-15.163	-45.9544	
432	58	1	-0.8476	0.85752	-16.194	-46.0265	
433	58	2	0.4238	1.8575	-16.194	-46.0265	
434	58	2	0.4238	0.52421	-15.2512	-46.0265	
435	59	1	-0.8476	4.2353	-16.1179	-46.0485	
436	59	2	0.4238	5.2353	-16.1179	-46.0485	
437	59	2	0.4238	3.902	-15.1751	-46.0485	
438	60	1	-0.8476	7.6043	-16.1831	-45.9851	
439	60	2	0.4238	8.6043	-16.1831	-45.9851	
440	60	2	0.4238	7.271	-15.2403	-45.9851	
441	61	1	-0.8476	11.0732	-16.1352	-46.0049	
442	61	2	0.4238	12.0732	-16.1352	-46.0049	
443	61	2	0.4238	10.7399	-15.1924	-46.0049	
444	62	1	-0.8476	14.4547	-16.1704	-45.9755	
445	62	2	0.4238	15.4547	-16.1704	-45.9755	
446	62	2	0.4238	14.1214	-15.2276	-45.9755	
447	63	1	-0.8476	17.8189	-16.1313	-46.0316	
448	63	2	0.4238	18.8189	-16.1313	-46.0316	
449	63	2	0.4238	17.4856	-15.1885	-46.0316	
450	64	1	-0.8476	21.2368	-16.1374	-45.972	
451	64	2	0.4238	22.2368	-16.1374	-45.972	
452	64	2	0.4238	20.9035	-15.1946	-45.972	
453	65	1	-0.8476	24.6081	-16.1071	-45.9724	
454	65	2	0.4238	25.6081	-16.1071	-45.9724	
455	65	2	0.4238	24.2748	-15.1643	-45.9724	
456	66	1	-0.8476	-26.3513	-12.7564	-46.0053	
457	66	2	0.4238	-25.3513	-12.7564	-46.0053	
458	66	2	0.4238	-26.6846	-11.8136	-46.0053	
459	67	1	-0.8476	-22.9694	-12.7491	-45.9989	
460	67	2	0.4238	-21.9694	-12.7491	-45.9989	
461	67	2	0.4238	-23.3027	-11.8063	-45.9989	
462	68	1	-0.8476	-19.5182	-12.7205	-45.9856	
463	68	2	0.4238	-18.5182	-12.7205	-45.9856	
464	68	2	0.4238	-19.8515	-11.7777	-45.9856	
465	69	1	-0.8476	-16.1621	-12.7188	-45.9967	
466	69	2	0.4238	-15.1621	-12.7188	-45.9967	
467	69	2	0.4238	-16.4954	-11.776	-45.9967	
468	70	1	-0.8476	-12.7649	-12.7061	-45.9624	
469	70	2	0.4238	-11.7649	-12.7061	-45.9624	
470	70	2	0.4238	-13.0982	-11.7633	-45.9624	
471	71	1	-0.8476	-9.345	-12.7378	-45.9913	
472	71	2	0.4238	-8.345	-12.7378	-45.9913	
473	71	2	0.4238	-9.6783	-11.795	-45.9913	
474	72	1	-0.8476	-5.9792	-12.7699	-46.0029	
475	72	2	0.4238	-4.9792	-12.7699	-46.0029	
476	72	2	0.4238	-6.3125	-11.8271	-46.0029	
477	73	1	-0.8476	-2.577	-12.7156	-46.0305	
478	73	2	0.4238	-1.577	-12.7156	-46.0305	
479	73	2	0.4238	-2.9103	-11.7728	-46.0305	
480	74	1	-0.8476	0.82259	-12.7829	-46.0272	
481	74	2	0.4238	1.8226	-12.7829	-46.0272	
482	74	2	0.4238	0.48928	-11.8401	-46.0272	
483	75	1	-0.8476	4.2436	-12.7689	-45.9577	
484	75	2	0.4238	5.2436	-12.7689	-45.9577	
485	75	2	0.4238	3.9103	-11.8261	-45.9577	
486	76	1	-0.8476	7.643	-12.7815	-45.9595	
487	76	2	0.4238	8.643	-12.7815	-45.9595	
488	76	2	0.4238	7.3097	-11.8387	-45.9595	
489	77	1	-0.8476	11.098	-12.7561	-46.0389	
490	77	2	0.4238	12.098	-12.7561	-46.0389	
491	77	2	0.4238	10.7647	-11.8133	-46.0389	
492	78	1	-0.8476	14.4258	-12.7591	-45.9905	
493	78	2	0.4238	15.4258	-12.7591	-45.9905	
494	78	2	0.4238	14.0925	-11.8163	-45.9905	
495	79	1	-0.8476	17.8262	-12.7397	-45.9789	
496	79	2	0.4238	18.8262	-12.7397	-45.9789	
497	79	2	0.4238	17.4929	-11.7969	-45.9789	
498	80	1	-0.8476	21.2222	-12.7883	-46.0203	
499	80	2	0.4238	22.2222	-12.7883	-46.0203	
500	80	2	0.4238	20.8889	-11.8455	-46.0203	
501	81	1	-0.8476	24.6319	-12.7576	-45.9992	
502	81	2	0.4238	25.6319	-12.7576	-45.9992	
503	81	2	0.4238	24.2986	-11.8148	-45.9992	
504	82	1	-0.8476	-26.3914	-9.3738	-45.9699	
505	82	2	0.4238	-25.3914	-9.3738	-45.9699	
506	82	2	0.4238	-26.7248	-8.431	-45.9699	
507	83	1	-0.8476	-22.9971	-9.3071	-45.977	
508	83	2	0.4238	-21.9971	-9.3071	-45.977	
509	83	2	0.4238	-23.3304	-8.3643	-45.977	
510	84	1	-0.8476	-19.5511	-9.3421	-46.0263	
511	84	2	0.4238	-18.5511	-9.3421	-46.0263	
512	84	2	0.4238	-19.8844	-8.3993	-46.0263	
513	85	1	-0.8476	-16.1541	-9.3037	-45.9953	
514	85	2	0.4238	-15.1541	-9.3037	-45.9953	
515	85	2	0.4238	-16.4874	-8.3609	-45.9953	
516	86	1	-0.8476	-12.7479	-9.3768	-46.0011	
517	86	2	0.4238	-11.7479	-9.3768	-46.0011	
518	86	2	0.4238	-13.0812	-8.434	-46.0011	
519	87	1	-0.8476	-9.3376	-9.3321	-46.0104	
520	87	2	0.4238	-8.3376	-9.3321	-46.0104	
521	87	2	0.4238	-9.6709	-8.3893	-46.0104	
522	88	1	-0.8476	-5.9633	-9.3012	-46.0462	
523	88	2	0.4238	-4.9633	-9.3012	-46.0462	
524	88	2	0.4238	-6.2966	-8.3584	-46.0462	
525	89	1	-0.8476	-2.5115	-9.3087	-45.9704	
526	89	2	0.4238	-1.5115	-9.3087	-45.9704	
527	89	2	0.4238	-2.8448	-8.3659	-45.9704	
528	90	1	-0.8476	0.80987	-9.3738	-46.0165	
529	90	2	0.4238	1.8099	-9.3738	-46.0165	
530	90	2	0.4238	0.47656	-8.431	-46.0165	
531	91	1	-0.8476	4.268	-9.3863	-45.9779	
532	91	2	0.4238	5.268	-9.3863	-45.9779	
533	91	2	0.4238	3.9347	-8.4435	-45.9779	
534	92	1	-0.8476	7.6107	-9.3346	-46.0006	
535	92	2	0.4238	8.6107	-9.3346	-46.0006	
536	92	2	0.4238	7.2774	-8.3918	-46.0006	
537	93	1	-0.8476	11.0779	-9.3285	-45.9596	
538	93	2	0.4238	12.0779	-9.3285	-45.9596	
539	93	2	0.4238	10.7446	-8.3857	-45.9596	
540	94	1	-0.8476	14.4891	-9.3666	-45.9801	
541	94	2	0.4238	15.4891	-9.3666	-45.9801	
542	94	2	0.4238	14.1558	-8.4238	-45.9801	
543	95	1	-0.8476	17.8198	-9.3969	-45.9756	
544	95	2	0.4238	18.8198	-9.3969	-45.9756	
545	95	2	0.4238	17.4865	-8.4541	-45.9756	
546	96	1	-0.8476	21.25	-9.352	-45.9595	
547	96	2	0.4238	22.25	-9.352	-45.9595	
548	96	2	0.4238	20.9167	-8.4092	-45.9595	
549	97	1	-0.8476	24.661	-9.3382	-45.9641	
550	97	2	0.4238	25.661	-9.3382	-45.9641	
551	97	2	0.4238	24.3277	-8.3954	-45.9641	
552	98	1	-0.8476	-26.3195	-5.9423	-46.0317	
553	98	2	0.4238	-25.3195	-5.9423	-46.0317	
554	98	2	0.4238	-26.6528	-4.9995	-46.0317	
555	99	1	-0.8476	-22.976	-5.9113	-46.0471	
556	99	2	0.4238	-21.976	-5.9113	-46.0471	
557	99	2	0.4238	-23.3093	-4.9685	-46.0471	
558	100	1	-0.8476	-19.551	-5.9832	-45.9521	
559	100	2	0.4238	-18.551	-5.9832	-45.9521	
560	100	2	0.4238	-19.8843	-5.0404	-45.9521	
561	101	1	-0.8476	-16.1287	-5.95	-46.0029	
562	101	2	0.4238	-15.1287	-5.95	-46.0029	
563	101	2	0.4238	-16.462	-5.0072	-46.0029	
564	102	1	-0.8476	-12.794	-5.9318	-46.0458	
565	102	2	0.4238	-11.794	-5.9318	-46.0458	
566	102	2	0.4238	-13.1273	-4.989	-46.0458	
567	103	1	-0.8476	-9.3929	-5.9478	-46.0403	
568	103	2	0.4238	-8.3929	-5.9478	-46.0403	
569	103	2	0.4238	-9.7262	-5.005	-46.0403	
570	104	1	-0.8476	-5.9182	-5.9182	-45.9778	
571	104	2	0.4238	-4.9182	-5.9182	-45.9778	
572	104	2	0.4238	-6.2515	-4.9754	-45.9778	
573	105	1	-0.8476	-2.585	-5.934	-45.9981	
574	105	2	0.4238	-1.585	-5.934	-45.9981	
575	105	2	0.4238	-2.9183	-4.9912	-45.9981	
576	106	1	-0.8476	0.8973	-5.9351	-45.97	
577	106	2	0.4238	1.8973	-5.9351	-45.97	
578	106	2	0.4238	0.56399	-4.9923	-45.97	
579	107	1	-0.8476	4.2454	-5.9568	-45.9675	
580	107	2	0.4238	5.2454	-5.9568	-45.9675	
581	107	2	0.4238	3.9121	-5.014	-45.9675	
582	108	1	-0.8476	7.6083	-5.9867	-46.0327	
583	108	2	0.4238	8.6083	-5.9867	-46.0327	
584	108	2	0.4238	7.275	-5.0439	-46.0327	
585	109	1	-0.8476	11.0391	-5.9169	-45.9697	
586	109	2	0.4238	12.0391	-5.9169	-45.9697	
587	109	2	0.4238	10.7058	-4.9741	-45.9697	
588	110	1	-0.8476	14.406	-5.9601	-45.9973	
589	110	2	0.4238	15.406	-5.9601	-45.9973	
590	110	2	0.4238	14.0727	-5.0173	-45.9973	
591	111	1	-0.8476	17.8417	-5.9343	-45.9872	
592	111	2	0.4238	18.8417	-5.9343	-45.9872	
593	111	2	0.4238	17.5084	-4.9915	-45.9872	
594	112	1	-0.8476	21.2292	-5.9568	-46.0485	
595	112	2	0.4238	22.2292	-5.9568	-46.0485	
596	112	2	0.4238	20.8959	-5.014	-46.0485	
597	113	1	-0.8476	24.6984	-5.9833	-46.0394	
598	113	2	0.4238	25.6984	-5.9833	-46.0394	
599	113	2	0.4238	24.3651	-5.0405	-46.0394	
600	114	1	-0.8476	-26.3628	-2.5802	-46.001	
601	114	2	0.4238	-25.3628	-2.5802	-46.001	
602	114	2	0.4238	-26.6961	-1.6374	-46.001	
603	115	1	-0.8476	-22.9661	-2.5048	-45.958	
604	115	2	0.4238	-21.9661	-2.5048	-45.958	
605	115	2	0.4238	-23.2994	-1.562	-45.958	
606	116	1	-0.8476	-19.5947	-2.5262	-46.0231	
607	116	2	0.4238	-18.5947	-2.5262	-46.0231	
608	116	2	0.4238	-19.928	-1.5834	-46.0231	
609	117	1	-0.8476	-16.1577	-2.5452	-45.9557	
610	117	2	0.4238	-15.1577	-2.5452	-45.9557	
611	117	2	0.4238	-16.491	-1.6024	-45.9557	
612	118	1	-0.8476	-12.7582	-2.5017	-46.0199	
613	118	2	0.4238	-11.7582	-2.5017	-46.0199	
614	118	2	0.4238	-13.0915	-1.5589	-46.0199	
615	119	1	-0.8476	-9.3299	-2.5334	-45.9961	
616	119	2	0.4238	-8.3299	-2.5334	-45.9961	
617	119	2	0.4238	-9.6632	-1.5906	-45.9961	
618	120	1	-0.8476	-5.9302	-2.5333	-46.0322	
619	120	2	0.4238	-4.9302	-2.5333	-46.0322	
620	120	2	0.4238	-6.2635	-1.5905	-46.0322	
621	121	1	-0.8476	-2.5872	-2.5001	-46.0329	
622	121	2	0.4238	-1.5872	-2.5001	-46.0329	
623	121	2	0.4238	-2.9205	-1.5573	-46.0329	
624	122	1	-0.8476	0.80326	-2.5439	-45.9618	
625	122	2	0.4238	1.8033	-2.5439	-45.9618	
626	122	2	0.4238	0.46995	-1.6011	-45.9618	
627	123	1	-0.8476	4.2669	-2.581	-46.0131	
628	123	2	0.4238	5.2669	-2.581	-46.0131	
629	123	2	0.4238	3.9336	-1.6382	-46.0131	
630	124	1	-0.8476	7.6461	-2.5018	-46.0344	
631	124	2	0.4238	8.6461	-2.5018	-46.0344	
632	124	2	0.4238	7.3128	-1.559	-46.0344	
633	125	1	-0.8476	11.0856	-2.5355	-46.0124	
634	125	2	0.4238	12.0856	-2.5355	-46.0124	
635	125	2	0.4238	10.7522	-1.5927	-46.0124	
636	126	1	-0.8476	14.4191	-2.5572	-46.0018	
637	126	2	0.4238	15.4191	-2.5572	-46.0018	
638	126	2	0.4238	14.0858	-1.6144	-46.0018	
639	127	1	-0.8476	17.8121	-2.541	-46.0274	
640	127	2	0.4238	18.8121	-2.541	-46.0274	
641	127	2	0.4238	17.4788	-1.5982	-46.0274	
642	128	1	-0.8476	21.2385	-2.5417	-46.0248	
643	128	2	0.4238	22.2385	-2.5417	-46.0248	
644	128	2	0.4238	20.9052	-1.5989	-46.0248	
645	129	1	-0.8476	24.629	-2.5383	-46.0235	
646	129	2	0.4238	25.629	-2.5383	-46.0235	
647	129	2	0.4238	24.2957	-1.5955	-46.0235	
648	130	1	-0.8476	-26.3176	0.89827	-45.977	
649	130	2	0.4238	-25.3176	0.89827	-45.977	
650	130	2	0.4238	-26.6509	1.8411	-45.977	
651	131	1	-0.8476	-22.9656	0.85841	-46.0392	
652	131	2	0.4238	-21.9656	0.85841	-46.0392	
653	131	2	0.4238	-23.2989	1.8012	-46.0392	
654	132	1	-0.8476	-19.5094	0.88797	-45.9682	
655	132	2	0.4238	-18.5094	0.88797	-45.9682	
656	132	2	0.4238	-19.8427	1.8308	-45.9682	
657	133	1	-0.8476	-16.1739	0.85944	-46.0477	
658	133	2	0.4238	-15.1739	0.85944	-46.0477	
659	133	2	0.4238	-16.5072	1.8022	-46.0477	
660	134	1	-0.8476	-12.7575	0.83127	-46.0339	
661	134	2	0.4238	-11.7575	0.83127	-46.0339	
662	134	2	0.4238	-13.0908	1.7741	-46.0339	
663	135	1	-0.8476	-9.3821	0.84229	-46.0406	
664	135	2	0.4238	-8.3821	0.84229	-46.0406	
665	135	2	0.4238	-9.7154	1.7851	-46.0406	
666	136	1	-0.8476	-5.9401	0.84709	-45.9804	
667	136	2	0.4238	-4.9401	0.84709	-45.9804	
668	136	2	0.4238	-6.2735	1.7899	-45.9804	
669	137	1	-0.8476	-2.53	0.86385	-46.0466	
670	137	2	0.4238	-1.53	0.86385	-46.0466	
671	137	2	0.4238	-2.8633	1.8067	-46.0466	
672	138	1	-0.8476	0.80688	0.83196	-45.9969	
673	138	2	0.4238	1.8069	0.83196	-45.9969	
674	138	2	0.4238	0.47357	1.7748	-45.9969	
675	139	1	-0.8476	4.2654	0.84076	-45.968	
676	139	2	0.4238	5.2654	0.84076	-45.968	
677	139	2	0.4238	3.9321	1.7836	-45.968	
678	140	1	-0.8476	7.6718	0.89686	-45.9969	
679	140	2	0.4238	8.6718	0.89686	-45.9969	
680	140	2	0.4238	7.3385	1.8397	-45.9969	
681	141	1	-0.8476	11.0325	0.81056	-45.9889	
682	141	2	0.4238	12.0325	0.81056	-45.9889	
683	141	2	0.4238	10.6992	1.7534	-45.9889	
684	142	1	-0.8476	14.4779	0.84235	-46.0409	
685	142	2	0.4238	15.4779	0.84235	-46.0409	
686	142	2	0.4238	14.1446	1.7851	-46.0409	
687	143	1	-0.8476	17.8266	0.81537	-46.0219	
688	143	2	0.4238	18.8266	0.81537	-46.0219	
689	143	2	0.4238	17.4933	1.7582	-46.0219	
690	144	1	-0.8476	21.244	0.85271	-46.0043	
691	144	2	0.4238	22.244	0.85271	-46.0043	
692	144	2	0.4238	20.9107	1.7955	-46.0043	
693	145	1	-0.8476	24.6875	0.85181	-45.9556	
694	145	2	0.4238	25.6875	0.85181	-45.9556	
695	145	2	0.4238	24.3542	1.7946	-45.9556	
696	146	1	-0.8476	-26.3362	4.2958	-46.0259	
697	146	2	0.4238	-25.3362	4.2958	-46.0259	
698	146	2	0.4238	-26.6695	5.2386	-46.0259	
699	147	1	-0.8476	-22.9324	4.2289	-45.9828	
700	147	2	0.4238	-21.9324	4.2289	-45.9828	
701	147	2	0.4238	-23.2657	5.1717	-45.9828	
702	148	1	-0.8476	-19.5305	4.2068	-46.0245	
703	148	2	0.4238	-18.5305	4.2068	-46.0245	
704	148	2	0.4238	-19.8638	5.1496	-46.0245	
705	149	1	-0.8476	-16.1776	4.2668	-45.9656	
706	149	2	0.4238	-15.1776	4.2668	-45.9656	
707	149	2	0.4238	-16.5109	5.2096	-45.9656	
708	150	1	-0.8476	-12.7656	4.2781	-45.9825	
709	150	2	0.4238	-11.7656	4.2781	-45.9825	
710	150	2	0.4238	-13.0989	5.2209	-45.9825	
711	151	1	-0.8476	-9.3993	4.2602	-46.0113	
712	151	2	0.4238	-8.3993	4.2602	-46.0113	
713	151	2	0.4238	-9.7326	5.203	-46.0113	
714	152	1	-0.8476	-5.9084	4.2001	-46.0038	
715	152	2	0.4238	-4.9084	4.2001	-46.0038	
716	152	2	0.4238	-6.2417	5.1429	-46.0038	
717	153	1	-0.8476	-2.5576	4.2461	-45.973	
718	153	2	0.4238	-1.5576	4.2461	-45.973	
719	153	2	0.4238	-2.8909	5.1889	-45.973	
720	154	1	-0.8476	0.83225	4.2785	-46.0029	
721	154	2	0.4238	1.8322	4.2785	-46.0029	
722	154	2	0.4238	0.49894	5.2213	-46.0029	
723	155	1	-0.8476	4.2036	4.2176	-45.9778	
724	155	2	0.4238	5.2036	4.2176	-45.9778	
725	155	2	0.4238	3.8703	5.1604	-45.9778	
726	156	1	-0.8476	7.6473	4.2153	-46.0159	
727	156	2	0.4238	8.6473	4.2153	-46.0159	
728	156	2	0.4238	7.314	5.1581	-46.0159	
729	157	1	-0.8476	11.0607	4.2192	-45.9762	
730	157	2	0.4238	12.0607	4.2192	-45.9762	
731	157	2	0.4238	10.7274	5.162	-45.9762	
732	158	1	-0.8476	14.4243	4.2917	-46.0231	
733	158	2	0.4238	15.4243	4.2917	-46.0231	
734	158	2	0.4238	14.091	5.2345	-46.0231	
735	159	1	-0.8476	17.8766	4.2189	-46.0213	
736	159	2	0.4238	18.8766	4.2189	-46.0213	
737	159	2	0.4238	17.5432	5.1617	-46.0213	
738	160	1	-0.8476	21.2091	4.2576	-45.9817	
739	160	2	0.4238	22.2091	4.2576	-45.9817	
740	160	2	0.4238	20.8758	5.2004	-45.9817	
741	161	1	-0.8476	24.6547	4.2426	-45.9856	
742	161	2	0.4238	25.6547	4.2426	-45.9856	
743	161	2	0.4238	24.3213	5.1854	-45.9856	
744	162	1	-0.8476	-26.3352	7.6679	-45.9864	
745	162	2	0.4238	-25.3352	7.6679	-45.9864	
746	162	2	0.4238	-26.6685	8.6107	-45.9864	
747	163	1	-0.8476	-22.9055	7.6209	-45.9791	
748	163	2	0.4238	-21.9055	7.6209	-45.9791	
749	163	2	0.4238	-23.2388	8.5637	-45.9791	
750	164	1	-0.8476	-19.5764	7.6119	-45.9893	
751	164	2	0.4238	-18.5764	7.6119	-45.9893	
752	164	2	0.4238	-19.9097	8.5547	-45.9893	
753	165	1	-0.8476	-16.155	7.6459	-45.9838	
754	165	2	0.4238	-15.155	7.6459	-45.9838	
755	165	2	0.4238	-16.4883	8.5887	-45.9838	
756	166	1	-0.8476	-12.723	7.635	-45.9838	
757	166	2	0.4238	-11.723	7.635	-45.9838	
758	166	2	0.4238	-13.0563	8.5778	-45.9838	
759	167	1	-0.8476	-9.3584	7.6842	-45.9667	
760	167	2	0.4238	-8.3584	7.6842	-45.9667	
761	167	2	0.4238	-9.6917	8.627	-45.9667	