# System

13763 atoms
9330 bonds
5113 angles
1193 dihedrals
147 impropers

15 atom types
8 bond types
14 angle types
15 dihedral types
1 improper types
extra bond per atom 2
extra angle per atom 1
extra special per atom 2
-27.2         27.2 xlo xhi
-27.2         27.2 ylo yhi
-50  50 zlo zhi

Atoms

1	1	3	-0.115	0	-9.1962	12.198	
2	1	3	-0.115	0	-9.9036	13.4233	
3	1	3	0	0	-9.1962	14.6485	
4	1	3	-0.115	0	-9.9036	15.8738	
5	1	3	0	0	-9.1962	17.099	
6	1	3	-0.115	0	-9.9036	18.3243	
7	1	3	0	0	-9.1962	19.5495	
8	1	3	-0.115	0	-9.9036	20.7748	
9	1	3	0	0	-9.1962	22	
10	1	13	0.15	0	-9.9036	23.2253	
11	1	3	0	0	-9.1962	24.4505	
12	1	3	-0.115	0	-9.9036	25.6758	
13	1	3	0	0	-9.1962	26.901	
14	1	13	0.15	0	-9.9036	28.1263	
15	1	3	0	0	-9.1962	29.3515	
16	1	3	-0.115	0	-9.9036	30.5768	
17	1	3	-0.115	0	-9.1962	31.802	
18	1	13	0.15	0	-7.7814	12.198	
19	1	3	0	0	-7.074	13.4233	
20	1	3	0	0	-7.7814	14.6485	
21	1	3	0	0	-7.074	15.8738	
22	1	3	0	0	-7.7814	17.099	
23	1	3	0	0	-7.074	18.3243	
24	1	3	0	0	-7.7814	19.5495	
25	1	3	0	0	-7.074	20.7748	
26	1	5	0.265	0	-7.7814	22	
27	1	5	0.265	0	-7.074	23.2253	
28	1	3	0	0	-7.7814	24.4505	
29	1	3	0	0	-7.074	25.6758	
30	1	3	0	0	-7.7814	26.901	
31	1	3	0	0	-7.074	28.1263	
32	1	3	0	0	-7.7814	29.3515	
33	1	3	0	0	-7.074	30.5768	
34	1	3	-0.115	0	-7.7814	31.802	
35	1	13	0.15	0	-4.9518	12.198	
36	1	5	0.265	0	-5.6592	13.4233	
37	1	5	0.265	0	-4.9518	14.6485	
38	1	5	0.265	0	-5.6592	15.8738	
39	1	5	0.265	0	-4.9518	17.099	
40	1	3	0	0	-5.6592	18.3243	
41	1	5	0.265	0	-4.9518	19.5495	
42	1	3	0	0	-5.6592	20.7748	
43	1	5	0.265	0	-4.9518	22	
44	1	5	0.265	0	-5.6592	23.2253	
45	1	3	0	0	-4.9518	24.4505	
46	1	3	0	0	-5.6592	25.6758	
47	1	3	0	0	-4.9518	26.901	
48	1	3	0	0	-5.6592	28.1263	
49	1	3	0	0	-4.9518	29.3515	
50	1	3	0	0	-5.6592	30.5768	
51	1	13	0.15	0	-4.9518	31.802	
52	1	3	-0.115	0	-3.537	12.198	
53	1	3	0	0	-2.8296	13.4233	
54	1	3	0	0	-3.537	14.6485	
55	1	3	0	0	-2.8296	15.8738	
56	1	5	0.265	0	-3.537	17.099	
57	1	5	0.265	0	-2.8296	18.3243	
58	1	5	0.265	0	-3.537	19.5495	
59	1	5	0.265	0	-2.8296	20.7748	
60	1	3	0	0	-3.537	22	
61	1	3	0	0	-2.8296	23.2253	
62	1	3	0	0	-3.537	24.4505	
63	1	3	0	0	-2.8296	25.6758	
64	1	3	0	0	-3.537	26.901	
65	1	3	0	0	-2.8296	28.1263	
66	1	3	0	0	-3.537	29.3515	
67	1	3	0	0	-2.8296	30.5768	
68	1	3	-0.115	0	-3.537	31.802	
69	1	3	-0.115	0	-0.7074	12.198	
70	1	3	0	0	-1.4148	13.4233	
71	1	3	0	0	-0.7074	14.6485	
72	1	5	0.265	0	-1.4148	15.8738	
73	1	5	0.265	0	-0.7074	17.099	
74	1	3	0	0	-1.4148	18.3243	
75	1	5	0.265	0	-0.7074	19.5495	
76	1	3	0	0	-1.4148	20.7748	
77	1	3	0	0	-0.7074	22	
78	1	3	0	0	-1.4148	23.2253	
79	1	3	0	0	-0.7074	24.4505	
80	1	3	0	0	-1.4148	25.6758	
81	1	3	0	0	-0.7074	26.901	
82	1	3	0	0	-1.4148	28.1263	
83	1	3	0	0	-0.7074	29.3515	
84	1	3	0	0	-1.4148	30.5768	
85	1	13	0.15	0	-0.7074	31.802	
86	1	3	-0.115	0	0.7074	12.198	
87	1	3	0	0	1.4148	13.4233	
88	1	5	0.265	0	0.7074	14.6485	
89	1	5	0.265	0	1.4148	15.8738	
90	1	3	0	0	0.7074	17.099	
91	1	3	0	0	1.4148	18.3243	
92	1	5	0.265	0	0.7074	19.5495	
93	1	3	0	0	1.4148	20.7748	
94	1	3	0	0	0.7074	22	
95	1	3	0	0	1.4148	23.2253	
96	1	3	0	0	0.7074	24.4505	
97	1	3	0	0	1.4148	25.6758	
98	1	3	0	0	0.7074	26.901	
99	1	3	0	0	1.4148	28.1263	
100	1	3	0	0	0.7074	29.3515	
101	1	3	0	0	1.4148	30.5768	
102	1	3	-0.115	0	0.7074	31.802	
103	1	13	0.15	0	3.537	12.198	
104	1	3	0	0	2.8296	13.4233	
105	1	3	0	0	3.537	14.6485	
106	1	3	0	0	2.8296	15.8738	
107	1	5	0.265	0	3.537	17.099	
108	1	5	0.265	0	2.8296	18.3243	
109	1	3	0	0	3.537	19.5495	
110	1	3	0	0	2.8296	20.7748	
111	1	3	0	0	3.537	22	
112	1	3	0	0	2.8296	23.2253	
113	1	3	0	0	3.537	24.4505	
114	1	3	0	0	2.8296	25.6758	
115	1	3	0	0	3.537	26.901	
116	1	3	0	0	2.8296	28.1263	
117	1	3	0	0	3.537	29.3515	
118	1	3	0	0	2.8296	30.5768	
119	1	3	-0.115	0	3.537	31.802	
120	1	13	0.15	0	4.9518	12.198	
121	1	3	0	0	5.6592	13.4233	
122	1	3	0	0	4.9518	14.6485	
123	1	3	0	0	5.6592	15.8738	
124	1	3	0	0	4.9518	17.099	
125	1	5	0.265	0	5.6592	18.3243	
126	1	5	0.265	0	4.9518	19.5495	
127	1	3	0	0	5.6592	20.7748	
128	1	3	0	0	4.9518	22	
129	1	3	0	0	5.6592	23.2253	
130	1	3	0	0	4.9518	24.4505	
131	1	3	0	0	5.6592	25.6758	
132	1	3	0	0	4.9518	26.901	
133	1	3	0	0	5.6592	28.1263	
134	1	3	0	0	4.9518	29.3515	
135	1	3	0	0	5.6592	30.5768	
136	1	3	-0.115	0	4.9518	31.802	
137	1	3	-0.115	0	7.7814	12.198	
138	1	3	0	0	7.074	13.4233	
139	1	3	0	0	7.7814	14.6485	
140	1	3	0	0	7.074	15.8738	
141	1	3	0	0	7.7814	17.099	
142	1	3	0	0	7.074	18.3243	
143	1	3	0	0	7.7814	19.5495	
144	1	3	0	0	7.074	20.7748	
145	1	3	0	0	7.7814	22	
146	1	3	0	0	7.074	23.2253	
147	1	3	0	0	7.7814	24.4505	
148	1	3	0	0	7.074	25.6758	
149	1	3	0	0	7.7814	26.901	
150	1	3	0	0	7.074	28.1263	
151	1	3	0	0	7.7814	29.3515	
152	1	3	0	0	7.074	30.5768	
153	1	3	-0.115	0	7.7814	31.802	
154	1	3	-0.115	0	9.1962	12.198	
155	1	3	-0.115	0	9.9036	13.4233	
156	1	3	0	0	9.1962	14.6485	
157	1	3	-0.115	0	9.9036	15.8738	
158	1	3	0	0	9.1962	17.099	
159	1	3	-0.115	0	9.9036	18.3243	
160	1	3	0	0	9.1962	19.5495	
161	1	3	-0.115	0	9.9036	20.7748	
162	1	3	0	0	9.1962	22	
163	1	3	-0.115	0	9.9036	23.2253	
164	1	3	0	0	9.1962	24.4505	
165	1	13	0.15	0	9.9036	25.6758	
166	1	3	0	0	9.1962	26.901	
167	1	13	0.15	0	9.9036	28.1263	
168	1	3	0	0	9.1962	29.3515	
169	1	3	-0.115	0	9.9036	30.5768	
170	1	13	0.15	0	9.1962	31.802	
171	1	4	0.115	0	-10.9806	13.4233	
172	1	4	0.115	0	-10.9806	15.8738	
173	1	4	0.115	0	-10.9806	18.3243	
174	1	4	0.115	0	-10.9806	20.7748	
175	1	9	-0.585	0	-11.3036	23.2253	
176	1	4	0.115	0	-10.9806	25.6758	
177	1	9	-0.585	0	-11.3036	28.1263	
178	1	4	0.115	0	-10.9806	30.5768	
179	1	4	0.115	0	10.9806	13.4233	
180	1	4	0.115	0	10.9806	15.8738	
181	1	4	0.115	0	10.9806	18.3243	
182	1	4	0.115	0	10.9806	20.7748	
183	1	4	0.115	0	10.9806	23.2253	
184	1	9	-0.585	0	11.3036	25.6758	
185	1	9	-0.585	0	11.3036	28.1263	
186	1	4	0.115	0	10.9806	30.5768	
187	1	4	0.115	0	-9.7347	11.2653	
188	1	9	-0.585	0	-7.0814	10.9856	
189	1	4	0.115	0	-9.7347	32.7348	
190	1	4	0.115	0	-7.2429	32.7348	
191	1	9	-0.585	0	-5.6518	10.9856	
192	1	4	0.115	0	-2.9985	11.2653	
193	1	9	-0.585	0	-5.6518	33.0145	
194	1	4	0.115	0	-2.9985	32.7348	
195	1	4	0.115	0	-1.2459	11.2653	
196	1	4	0.115	0	1.2459	11.2653	
197	1	9	-0.585	0	-1.4074	33.0145	
198	1	4	0.115	0	1.2459	32.7348	
199	1	9	-0.585	0	2.837	10.9856	
200	1	9	-0.585	0	5.6518	10.9856	
201	1	4	0.115	0	2.9985	32.7348	
202	1	4	0.115	0	5.4903	32.7348	
203	1	4	0.115	0	7.2429	11.2653	
204	1	4	0.115	0	9.7347	11.2653	
205	1	4	0.115	0	7.2429	32.7348	
206	1	9	-0.585	0	9.8962	33.0145	
207	1	7	0.435	-0.7	-12.0036	23.2253	
208	1	7	0.435	-0.7	-12.0036	28.1263	
209	1	7	0.435	-0.7	12.0036	25.6758	
210	1	7	0.435	0.7	12.0036	28.1263	
211	1	7	0.435	-0.7	-6.7314	10.3793	
212	1	7	0.435	-0.7	-6.0018	10.3793	
213	1	7	0.435	-0.7	-6.0018	33.6207	
214	1	7	0.435	-0.7	-1.7574	33.6207	
215	1	7	0.435	0.7	2.487	10.3793	
216	1	7	0.435	0.7	6.0018	10.3793	
217	1	7	0.435	0.7	10.2462	33.6207	
218	1	6	-0.683	1.4	-4.9518	14.6485	
219	1	7	0.418	2.4	-4.9518	14.6485	
220	1	6	-0.683	-1.4	-5.6592	13.4233	
221	1	7	0.418	-2.4	-5.6592	13.4233	
222	1	6	-0.683	1.4	-5.6592	15.8738	
223	1	7	0.418	2.4	-5.6592	15.8738	
224	1	6	-0.683	-1.4	-1.4148	15.8738	
225	1	7	0.418	-2.4	-1.4148	15.8738	
226	1	6	-0.683	-1.4	-4.9518	17.099	
227	1	7	0.418	-2.4	-4.9518	17.099	
228	1	6	-0.683	1.4	-2.8296	18.3243	
229	1	7	0.418	2.4	-2.8296	18.3243	
230	1	6	-0.683	1.4	0.7074	14.6485	
231	1	7	0.418	2.4	0.7074	14.6485	
232	1	6	-0.683	-1.4	-0.7074	17.099	
233	1	7	0.418	-2.4	-0.7074	17.099	
234	1	6	-0.683	1.4	0.7074	19.5495	
235	1	7	0.418	2.4	0.7074	19.5495	
236	1	6	-0.683	-1.4	1.4148	15.8738	
237	1	7	0.418	-2.4	1.4148	15.8738	
238	1	6	-0.683	1.4	-0.7074	19.5495	
239	1	7	0.418	2.4	-0.7074	19.5495	
240	1	6	-0.683	-1.4	-3.537	19.5495	
241	1	7	0.418	-2.4	-3.537	19.5495	
242	1	6	-0.683	1.4	-4.9518	19.5495	
243	1	7	0.418	2.4	-4.9518	19.5495	
244	1	6	-0.683	-1.4	-4.9518	22	
245	1	7	0.418	-2.4	-4.9518	22	
246	1	6	-0.683	-1.4	-3.537	17.099	
247	1	7	0.418	-2.4	-3.537	17.099	
248	1	6	-0.683	-1.4	2.8296	18.3243	
249	1	7	0.418	-2.4	2.8296	18.3243	
250	1	6	-0.683	1.4	-7.7814	22	
251	1	7	0.418	2.4	-7.7814	22	
252	1	6	-0.683	1.4	3.537	17.099	
253	1	7	0.418	2.4	3.537	17.099	
254	1	6	-0.683	1.4	4.9518	19.5495	
255	1	7	0.418	2.4	4.9518	19.5495	
256	1	6	-0.683	-1.4	-7.074	23.2253	
257	1	7	0.418	-2.4	-7.074	23.2253	
258	1	6	-0.683	1.4	5.6592	18.3243	
259	1	7	0.418	2.4	5.6592	18.3243	
260	1	6	-0.683	1.4	-5.6592	23.2253	
261	1	7	0.418	2.4	-5.6592	23.2253	
262	1	6	-0.683	-1.4	-2.8296	20.7748	
263	1	7	0.418	-2.4	-2.8296	20.7748	
264	2	1	-0.8476	-26.3167	-26.3828	-45.9574	
265	2	2	0.4238	-25.3167	-26.3828	-45.9574	
266	2	2	0.4238	-26.65	-25.44	-45.9574	
267	3	1	-0.8476	-22.9806	-26.3224	-45.9844	
268	3	2	0.4238	-21.9806	-26.3224	-45.9844	
269	3	2	0.4238	-23.3139	-25.3796	-45.9844	
270	4	1	-0.8476	-19.5722	-26.3377	-46.0203	
271	4	2	0.4238	-18.5722	-26.3377	-46.0203	
272	4	2	0.4238	-19.9055	-25.3949	-46.0203	
273	5	1	-0.8476	-16.1166	-26.3919	-45.9625	
274	5	2	0.4238	-15.1166	-26.3919	-45.9625	
275	5	2	0.4238	-16.4499	-25.4491	-45.9625	
276	6	1	-0.8476	-12.7427	-26.3135	-45.9901	
277	6	2	0.4238	-11.7427	-26.3135	-45.9901	
278	6	2	0.4238	-13.076	-25.3707	-45.9901	
279	7	1	-0.8476	-9.3729	-26.3227	-45.9882	
280	7	2	0.4238	-8.3729	-26.3227	-45.9882	
281	7	2	0.4238	-9.7062	-25.3799	-45.9882	
282	8	1	-0.8476	-5.9616	-26.3925	-45.9886	
283	8	2	0.4238	-4.9616	-26.3925	-45.9886	
284	8	2	0.4238	-6.2949	-25.4497	-45.9886	
285	9	1	-0.8476	-2.5474	-26.3523	-45.9557	
286	9	2	0.4238	-1.5474	-26.3523	-45.9557	
287	9	2	0.4238	-2.8807	-25.4095	-45.9557	
288	10	1	-0.8476	0.80899	-26.3081	-46.0144	
289	10	2	0.4238	1.809	-26.3081	-46.0144	
290	10	2	0.4238	0.47568	-25.3653	-46.0144	
291	11	1	-0.8476	4.2375	-26.3722	-45.957	
292	11	2	0.4238	5.2375	-26.3722	-45.957	
293	11	2	0.4238	3.9042	-25.4294	-45.957	
294	12	1	-0.8476	7.665	-26.3445	-46.0298	
295	12	2	0.4238	8.665	-26.3445	-46.0298	
296	12	2	0.4238	7.3317	-25.4017	-46.0298	
297	13	1	-0.8476	11.0626	-26.327	-45.9926	
298	13	2	0.4238	12.0626	-26.327	-45.9926	
299	13	2	0.4238	10.7293	-25.3842	-45.9926	
300	14	1	-0.8476	14.4621	-26.3733	-46.0024	
301	14	2	0.4238	15.4621	-26.3733	-46.0024	
302	14	2	0.4238	14.1288	-25.4305	-46.0024	
303	15	1	-0.8476	17.8557	-26.3695	-46.0206	
304	15	2	0.4238	18.8557	-26.3695	-46.0206	
305	15	2	0.4238	17.5224	-25.4267	-46.0206	
306	16	1	-0.8476	21.231	-26.3813	-46.0314	
307	16	2	0.4238	22.231	-26.3813	-46.0314	
308	16	2	0.4238	20.8976	-25.4385	-46.0314	
309	17	1	-0.8476	24.6774	-26.3972	-46.0172	
310	17	2	0.4238	25.6774	-26.3972	-46.0172	
311	17	2	0.4238	24.3441	-25.4544	-46.0172	
312	18	1	-0.8476	-26.3661	-22.9701	-45.9835	
313	18	2	0.4238	-25.3661	-22.9701	-45.9835	
314	18	2	0.4238	-26.6994	-22.0273	-45.9835	
315	19	1	-0.8476	-22.9914	-22.9123	-46.0327	
316	19	2	0.4238	-21.9914	-22.9123	-46.0327	
317	19	2	0.4238	-23.3247	-21.9695	-46.0327	
318	20	1	-0.8476	-19.5885	-22.908	-45.9637	
319	20	2	0.4238	-18.5885	-22.908	-45.9637	
320	20	2	0.4238	-19.9218	-21.9652	-45.9637	
321	21	1	-0.8476	-16.1706	-22.9651	-45.9773	
322	21	2	0.4238	-15.1706	-22.9651	-45.9773	
323	21	2	0.4238	-16.5039	-22.0223	-45.9773	
324	22	1	-0.8476	-12.738	-22.9757	-45.962	
325	22	2	0.4238	-11.738	-22.9757	-45.962	
326	22	2	0.4238	-13.0713	-22.0329	-45.962	
327	23	1	-0.8476	-9.3062	-22.9498	-45.97	
328	23	2	0.4238	-8.3062	-22.9498	-45.97	
329	23	2	0.4238	-9.6395	-22.007	-45.97	
330	24	1	-0.8476	-5.979	-22.936	-46.0199	
331	24	2	0.4238	-4.979	-22.936	-46.0199	
332	24	2	0.4238	-6.3123	-21.9932	-46.0199	
333	25	1	-0.8476	-2.505	-22.9619	-46.0401	
334	25	2	0.4238	-1.505	-22.9619	-46.0401	
335	25	2	0.4238	-2.8383	-22.0191	-46.0401	
336	26	1	-0.8476	0.86744	-22.9216	-46.0334	
337	26	2	0.4238	1.8674	-22.9216	-46.0334	
338	26	2	0.4238	0.53413	-21.9788	-46.0334	
339	27	1	-0.8476	4.2597	-22.9938	-45.9642	
340	27	2	0.4238	5.2597	-22.9938	-45.9642	
341	27	2	0.4238	3.9264	-22.051	-45.9642	
342	28	1	-0.8476	7.6351	-22.9312	-45.9673	
343	28	2	0.4238	8.6351	-22.9312	-45.9673	
344	28	2	0.4238	7.3018	-21.9884	-45.9673	
345	29	1	-0.8476	11.0502	-22.9131	-45.9608	
346	29	2	0.4238	12.0502	-22.9131	-45.9608	
347	29	2	0.4238	10.7168	-21.9703	-45.9608	
348	30	1	-0.8476	14.4892	-22.9327	-46.02	
349	30	2	0.4238	15.4892	-22.9327	-46.02	
350	30	2	0.4238	14.1559	-21.9899	-46.02	
351	31	1	-0.8476	17.8963	-22.9892	-45.9541	
352	31	2	0.4238	18.8963	-22.9892	-45.9541	
353	31	2	0.4238	17.563	-22.0464	-45.9541	
354	32	1	-0.8476	21.2456	-22.946	-46.0416	
355	32	2	0.4238	22.2456	-22.946	-46.0416	
356	32	2	0.4238	20.9123	-22.0032	-46.0416	
357	33	1	-0.8476	24.6897	-22.9005	-46.0025	
358	33	2	0.4238	25.6897	-22.9005	-46.0025	
359	33	2	0.4238	24.3564	-21.9577	-46.0025	
360	34	1	-0.8476	-26.3044	-19.5519	-46.0273	
361	34	2	0.4238	-25.3044	-19.5519	-46.0273	
362	34	2	0.4238	-26.6377	-18.6091	-46.0273	
363	35	1	-0.8476	-22.9061	-19.5565	-45.9678	
364	35	2	0.4238	-21.9061	-19.5565	-45.9678	
365	35	2	0.4238	-23.2394	-18.6137	-45.9678	
366	36	1	-0.8476	-19.5173	-19.5751	-45.9983	
367	36	2	0.4238	-18.5173	-19.5751	-45.9983	
368	36	2	0.4238	-19.8506	-18.6323	-45.9983	
369	37	1	-0.8476	-16.143	-19.5514	-46.0347	
370	37	2	0.4238	-15.143	-19.5514	-46.0347	
371	37	2	0.4238	-16.4763	-18.6086	-46.0347	
372	38	1	-0.8476	-12.7236	-19.5616	-46.0088	
373	38	2	0.4238	-11.7236	-19.5616	-46.0088	
374	38	2	0.4238	-13.0569	-18.6188	-46.0088	
375	39	1	-0.8476	-9.3052	-19.5785	-46.0214	
376	39	2	0.4238	-8.3052	-19.5785	-46.0214	
377	39	2	0.4238	-9.6385	-18.6357	-46.0214	
378	40	1	-0.8476	-5.9242	-19.5951	-46.0264	
379	40	2	0.4238	-4.9242	-19.5951	-46.0264	
380	40	2	0.4238	-6.2575	-18.6523	-46.0264	
381	41	1	-0.8476	-2.5656	-19.5546	-45.991	
382	41	2	0.4238	-1.5656	-19.5546	-45.991	
383	41	2	0.4238	-2.8989	-18.6118	-45.991	
384	42	1	-0.8476	0.82204	-19.5367	-45.9969	
385	42	2	0.4238	1.822	-19.5367	-45.9969	
386	42	2	0.4238	0.48873	-18.5939	-45.9969	
387	43	1	-0.8476	4.2061	-19.5033	-46.0056	
388	43	2	0.4238	5.2061	-19.5033	-46.0056	
389	43	2	0.4238	3.8728	-18.5605	-46.0056	
390	44	1	-0.8476	7.6583	-19.5373	-45.9744	
391	44	2	0.4238	8.6583	-19.5373	-45.9744	
392	44	2	0.4238	7.325	-18.5945	-45.9744	
393	45	1	-0.8476	11.0096	-19.558	-46.0498	
394	45	2	0.4238	12.0096	-19.558	-46.0498	
395	45	2	0.4238	10.6763	-18.6152	-46.0498	
396	46	1	-0.8476	14.4207	-19.5987	-45.9682	
397	46	2	0.4238	15.4207	-19.5987	-45.9682	
398	46	2	0.4238	14.0874	-18.6559	-45.9682	
399	47	1	-0.8476	17.8777	-19.526	-46.0056	
400	47	2	0.4238	18.8777	-19.526	-46.0056	
401	47	2	0.4238	17.5444	-18.5832	-46.0056	
402	48	1	-0.8476	21.2834	-19.5539	-45.9947	
403	48	2	0.4238	22.2834	-19.5539	-45.9947	
404	48	2	0.4238	20.9501	-18.6111	-45.9947	
405	49	1	-0.8476	24.6807	-19.557	-45.9505	
406	49	2	0.4238	25.6807	-19.557	-45.9505	
407	49	2	0.4238	24.3473	-18.6142	-45.9505	
408	50	1	-0.8476	-26.3394	-16.1585	-46.0198	
409	50	2	0.4238	-25.3394	-16.1585	-46.0198	
410	50	2	0.4238	-26.6727	-15.2157	-46.0198	
411	51	1	-0.8476	-22.9311	-16.1723	-45.9979	
412	51	2	0.4238	-21.9311	-16.1723	-45.9979	
413	51	2	0.4238	-23.2644	-15.2295	-45.9979	
414	52	1	-0.8476	-19.5252	-16.1604	-46.0048	
415	52	2	0.4238	-18.5252	-16.1604	-46.0048	
416	52	2	0.4238	-19.8585	-15.2176	-46.0048	
417	53	1	-0.8476	-16.1002	-16.1533	-45.9985	
418	53	2	0.4238	-15.1002	-16.1533	-45.9985	
419	53	2	0.4238	-16.4335	-15.2105	-45.9985	
420	54	1	-0.8476	-12.7609	-16.119	-45.9919	
421	54	2	0.4238	-11.7609	-16.119	-45.9919	
422	54	2	0.4238	-13.0942	-15.1762	-45.9919	
423	55	1	-0.8476	-9.3453	-16.1203	-46.0446	
424	55	2	0.4238	-8.3453	-16.1203	-46.0446	
425	55	2	0.4238	-9.6786	-15.1775	-46.0446	
426	56	1	-0.8476	-5.9012	-16.1437	-45.962	
427	56	2	0.4238	-4.9012	-16.1437	-45.962	
428	56	2	0.4238	-6.2345	-15.2009	-45.962	
429	57	1	-0.8476	-2.5022	-16.1482	-45.9568	
430	57	2	0.4238	-1.5022	-16.1482	-45.9568	
431	57	2	0.4238	-2.8355	-15.2054	-45.9568	
432	58	1	-0.8476	0.83161	-16.1264	-45.9576	
433	58	2	0.4238	1.8316	-16.1264	-45.9576	
434	58	2	0.4238	0.4983	-15.1836	-45.9576	
435	59	1	-0.8476	4.283	-16.1685	-46.0107	
436	59	2	0.4238	5.283	-16.1685	-46.0107	
437	59	2	0.4238	3.9497	-15.2257	-46.0107	
438	60	1	-0.8476	7.6391	-16.1929	-45.9923	
439	60	2	0.4238	8.6391	-16.1929	-45.9923	
440	60	2	0.4238	7.3058	-15.2501	-45.9923	
441	61	1	-0.8476	11.0326	-16.1606	-45.9584	
442	61	2	0.4238	12.0326	-16.1606	-45.9584	
443	61	2	0.4238	10.6993	-15.2178	-45.9584	
444	62	1	-0.8476	14.4907	-16.1469	-45.9594	
445	62	2	0.4238	15.4907	-16.1469	-45.9594	
446	62	2	0.4238	14.1573	-15.2041	-45.9594	
447	63	1	-0.8476	17.8003	-16.1262	-45.9981	
448	63	2	0.4238	18.8003	-16.1262	-45.9981	
449	63	2	0.4238	17.467	-15.1834	-45.9981	
450	64	1	-0.8476	21.2946	-16.1727	-45.9999	
451	64	2	0.4238	22.2946	-16.1727	-45.9999	
452	64	2	0.4238	20.9613	-15.2299	-45.9999	
453	65	1	-0.8476	24.6912	-16.1681	-45.9997	
454	65	2	0.4238	25.6912	-16.1681	-45.9997	
455	65	2	0.4238	24.3579	-15.2253	-45.9997	
456	66	1	-0.8476	-26.3767	-12.7126	-45.9853	
457	66	2	0.4238	-25.3767	-12.7126	-45.9853	
458	66	2	0.4238	-26.71	-11.7698	-45.9853	
459	67	1	-0.8476	-22.9139	-12.7628	-45.9643	
460	67	2	0.4238	-21.9139	-12.7628	-45.9643	
461	67	2	0.4238	-23.2472	-11.82	-45.9643	
462	68	1	-0.8476	-19.593	-12.7541	-45.9854	
463	68	2	0.4238	-18.593	-12.7541	-45.9854	
464	68	2	0.4238	-19.9263	-11.8113	-45.9854	
465	69	1	-0.8476	-16.1618	-12.7811	-45.9515	
466	69	2	0.4238	-15.1618	-12.7811	-45.9515	
467	69	2	0.4238	-16.4951	-11.8383	-45.9515	
468	70	1	-0.8476	-12.7887	-12.7659	-46.0136	
469	70	2	0.4238	-11.7887	-12.7659	-46.0136	
470	70	2	0.4238	-13.122	-11.8231	-46.0136	
471	71	1	-0.8476	-9.3309	-12.727	-45.9588	
472	71	2	0.4238	-8.3309	-12.727	-45.9588	
473	71	2	0.4238	-9.6642	-11.7842	-45.9588	
474	72	1	-0.8476	-5.9932	-12.7563	-45.9501	
475	72	2	0.4238	-4.9932	-12.7563	-45.9501	
476	72	2	0.4238	-6.3265	-11.8135	-45.9501	
477	73	1	-0.8476	-2.5787	-12.7953	-46.0342	
478	73	2	0.4238	-1.5787	-12.7953	-46.0342	
479	73	2	0.4238	-2.912	-11.8525	-46.0342	
480	74	1	-0.8476	0.84952	-12.7813	-46.0463	
481	74	2	0.4238	1.8495	-12.7813	-46.0463	
482	74	2	0.4238	0.51621	-11.8385	-46.0463	
483	75	1	-0.8476	4.2676	-12.7929	-46.0017	
484	75	2	0.4238	5.2676	-12.7929	-46.0017	
485	75	2	0.4238	3.9343	-11.8501	-46.0017	
486	76	1	-0.8476	7.67	-12.7452	-45.9777	
487	76	2	0.4238	8.67	-12.7452	-45.9777	
488	76	2	0.4238	7.3367	-11.8024	-45.9777	
489	77	1	-0.8476	11.0814	-12.7769	-45.9828	
490	77	2	0.4238	12.0814	-12.7769	-45.9828	
491	77	2	0.4238	10.748	-11.8341	-45.9828	
492	78	1	-0.8476	14.4554	-12.7428	-46.0037	
493	78	2	0.4238	15.4554	-12.7428	-46.0037	
494	78	2	0.4238	14.1221	-11.8	-46.0037	
495	79	1	-0.8476	17.8028	-12.7345	-46.0012	
496	79	2	0.4238	18.8028	-12.7345	-46.0012	
497	79	2	0.4238	17.4695	-11.7917	-46.0012	
498	80	1	-0.8476	21.2505	-12.7857	-46.0275	
499	80	2	0.4238	22.2505	-12.7857	-46.0275	
500	80	2	0.4238	20.9172	-11.8429	-46.0275	
501	81	1	-0.8476	24.6296	-12.7919	-46.0237	
502	81	2	0.4238	25.6296	-12.7919	-46.0237	
503	81	2	0.4238	24.2963	-11.8491	-46.0237	
504	82	1	-0.8476	-26.3148	-9.3089	-46.0203	
505	82	2	0.4238	-25.3148	-9.3089	-46.0203	
506	82	2	0.4238	-26.6482	-8.3661	-46.0203	
507	83	1	-0.8476	-22.9835	-9.3829	-46.046	
508	83	2	0.4238	-21.9835	-9.3829	-46.046	
509	83	2	0.4238	-23.3168	-8.4401	-46.046	
510	84	1	-0.8476	-19.5364	-9.3435	-46.0488	
511	84	2	0.4238	-18.5364	-9.3435	-46.0488	
512	84	2	0.4238	-19.8697	-8.4007	-46.0488	
513	85	1	-0.8476	-16.1564	-9.3223	-46.0419	
514	85	2	0.4238	-15.1564	-9.3223	-46.0419	
515	85	2	0.4238	-16.4897	-8.3795	-46.0419	
516	86	1	-0.8476	-12.7454	-9.3734	-45.9832	
517	86	2	0.4238	-11.7454	-9.3734	-45.9832	
518	86	2	0.4238	-13.0787	-8.4306	-45.9832	
519	87	1	-0.8476	-9.3392	-9.3329	-45.989	
520	87	2	0.4238	-8.3392	-9.3329	-45.989	
521	87	2	0.4238	-9.6725	-8.3901	-45.989	
522	88	1	-0.8476	-5.921	-9.3744	-45.9616	
523	88	2	0.4238	-4.921	-9.3744	-45.9616	
524	88	2	0.4238	-6.2543	-8.4316	-45.9616	
525	89	1	-0.8476	-2.5136	-9.3785	-46.0266	
526	89	2	0.4238	-1.5136	-9.3785	-46.0266	
527	89	2	0.4238	-2.847	-8.4357	-46.0266	
528	90	1	-0.8476	0.85355	-9.3924	-46.0193	
529	90	2	0.4238	1.8536	-9.3924	-46.0193	
530	90	2	0.4238	0.52024	-8.4496	-46.0193	
531	91	1	-0.8476	4.2937	-9.3491	-46.0004	
532	91	2	0.4238	5.2937	-9.3491	-46.0004	
533	91	2	0.4238	3.9604	-8.4063	-46.0004	
534	92	1	-0.8476	7.678	-9.3435	-46.0457	
535	92	2	0.4238	8.678	-9.3435	-46.0457	
536	92	2	0.4238	7.3447	-8.4007	-46.0457	
537	93	1	-0.8476	11.0072	-9.3075	-46.0215	
538	93	2	0.4238	12.0072	-9.3075	-46.0215	
539	93	2	0.4238	10.6739	-8.3647	-46.0215	
540	94	1	-0.8476	14.438	-9.3643	-46.0186	
541	94	2	0.4238	15.438	-9.3643	-46.0186	
542	94	2	0.4238	14.1047	-8.4215	-46.0186	
543	95	1	-0.8476	17.8222	-9.3994	-46.045	
544	95	2	0.4238	18.8222	-9.3994	-46.045	
545	95	2	0.4238	17.4889	-8.4566	-46.045	
546	96	1	-0.8476	21.2494	-9.3388	-46.0041	
547	96	2	0.4238	22.2494	-9.3388	-46.0041	
548	96	2	0.4238	20.9161	-8.396	-46.0041	
549	97	1	-0.8476	24.6586	-9.3337	-45.9557	
550	97	2	0.4238	25.6586	-9.3337	-45.9557	
551	97	2	0.4238	24.3253	-8.3909	-45.9557	
552	98	1	-0.8476	-26.3325	-5.9452	-46.0072	
553	98	2	0.4238	-25.3325	-5.9452	-46.0072	
554	98	2	0.4238	-26.6658	-5.0024	-46.0072	
555	99	1	-0.8476	-22.9876	-5.9452	-45.9818	
556	99	2	0.4238	-21.9876	-5.9452	-45.9818	
557	99	2	0.4238	-23.3209	-5.0024	-45.9818	
558	100	1	-0.8476	-19.5564	-5.9198	-45.9946	
559	100	2	0.4238	-18.5564	-5.9198	-45.9946	
560	100	2	0.4238	-19.8897	-4.977	-45.9946	
561	101	1	-0.8476	-16.1168	-5.9491	-46.0296	
562	101	2	0.4238	-15.1168	-5.9491	-46.0296	
563	101	2	0.4238	-16.4501	-5.0063	-46.0296	
564	102	1	-0.8476	-12.7573	-5.9894	-46.0227	
565	102	2	0.4238	-11.7573	-5.9894	-46.0227	
566	102	2	0.4238	-13.0906	-5.0466	-46.0227	
567	103	1	-0.8476	-9.3343	-5.9415	-46.0422	
568	103	2	0.4238	-8.3343	-5.9415	-46.0422	
569	103	2	0.4238	-9.6676	-4.9987	-46.0422	
570	104	1	-0.8476	-5.9946	-5.9502	-45.986	
571	104	2	0.4238	-4.9946	-5.9502	-45.986	
572	104	2	0.4238	-6.3279	-5.0074	-45.986	
573	105	1	-0.8476	-2.5843	-5.939	-46.0046	
574	105	2	0.4238	-1.5843	-5.939	-46.0046	
575	105	2	0.4238	-2.9176	-4.9962	-46.0046	
576	106	1	-0.8476	0.81864	-5.9611	-46.0098	
577	106	2	0.4238	1.8186	-5.9611	-46.0098	
578	106	2	0.4238	0.48533	-5.0183	-46.0098	
579	107	1	-0.8476	4.2158	-5.955	-46.0425	
580	107	2	0.4238	5.2158	-5.955	-46.0425	
581	107	2	0.4238	3.8825	-5.0122	-46.0425	
582	108	1	-0.8476	7.6014	-5.9845	-46.0054	
583	108	2	0.4238	8.6014	-5.9845	-46.0054	
584	108	2	0.4238	7.2681	-5.0417	-46.0054	
585	109	1	-0.8476	11.0757	-5.9797	-45.9667	
586	109	2	0.4238	12.0757	-5.9797	-45.9667	
587	109	2	0.4238	10.7424	-5.0369	-45.9667	
588	110	1	-0.8476	14.4368	-5.9126	-46.0007	
589	110	2	0.4238	15.4368	-5.9126	-46.0007	
590	110	2	0.4238	14.1034	-4.9698	-46.0007	
591	111	1	-0.8476	17.8228	-5.9507	-46.0184	
592	111	2	0.4238	18.8228	-5.9507	-46.0184	
593	111	2	0.4238	17.4895	-5.0079	-46.0184	
594	112	1	-0.8476	21.2404	-5.9693	-45.955	
595	112	2	0.4238	22.2404	-5.9693	-45.955	
596	112	2	0.4238	20.9071	-5.0265	-45.955	
597	113	1	-0.8476	24.6836	-5.9761	-45.9631	
598	113	2	0.4238	25.6836	-5.9761	-45.9631	
599	113	2	0.4238	24.3503	-5.0333	-45.9631	
600	114	1	-0.8476	-26.3886	-2.587	-45.9625	
601	114	2	0.4238	-25.3886	-2.587	-45.9625	
602	114	2	0.4238	-26.7219	-1.6442	-45.9625	
603	115	1	-0.8476	-22.9172	-2.583	-45.9987	
604	115	2	0.4238	-21.9172	-2.583	-45.9987	
605	115	2	0.4238	-23.2505	-1.6402	-45.9987	
606	116	1	-0.8476	-19.5869	-2.5051	-46.027	
607	116	2	0.4238	-18.5869	-2.5051	-46.027	
608	116	2	0.4238	-19.9202	-1.5623	-46.027	
609	117	1	-0.8476	-16.1738	-2.5504	-46.0238	
610	117	2	0.4238	-15.1738	-2.5504	-46.0238	
611	117	2	0.4238	-16.5071	-1.6076	-46.0238	
612	118	1	-0.8476	-12.7449	-2.5987	-46.0195	
613	118	2	0.4238	-11.7449	-2.5987	-46.0195	
614	118	2	0.4238	-13.0782	-1.6559	-46.0195	
615	119	1	-0.8476	-9.32	-2.584	-46.0247	
616	119	2	0.4238	-8.32	-2.584	-46.0247	
617	119	2	0.4238	-9.6533	-1.6412	-46.0247	
618	120	1	-0.8476	-5.9283	-2.5001	-46.0191	
619	120	2	0.4238	-4.9283	-2.5001	-46.0191	
620	120	2	0.4238	-6.2617	-1.5573	-46.0191	
621	121	1	-0.8476	-2.5905	-2.521	-46.0289	
622	121	2	0.4238	-1.5905	-2.521	-46.0289	
623	121	2	0.4238	-2.9238	-1.5782	-46.0289	
624	122	1	-0.8476	0.87046	-2.5404	-46.0369	
625	122	2	0.4238	1.8705	-2.5404	-46.0369	
626	122	2	0.4238	0.53715	-1.5976	-46.0369	
627	123	1	-0.8476	4.2522	-2.5993	-45.9607	
628	123	2	0.4238	5.2522	-2.5993	-45.9607	
629	123	2	0.4238	3.9189	-1.6565	-45.9607	
630	124	1	-0.8476	7.6397	-2.5519	-45.9549	
631	124	2	0.4238	8.6397	-2.5519	-45.9549	
632	124	2	0.4238	7.3064	-1.6091	-45.9549	
633	125	1	-0.8476	11.0889	-2.5191	-46.0022	
634	125	2	0.4238	12.0889	-2.5191	-46.0022	
635	125	2	0.4238	10.7556	-1.5763	-46.0022	
636	126	1	-0.8476	14.4981	-2.5569	-45.9699	
637	126	2	0.4238	15.4981	-2.5569	-45.9699	
638	126	2	0.4238	14.1648	-1.6141	-45.9699	
639	127	1	-0.8476	17.8299	-2.5518	-46.0133	
640	127	2	0.4238	18.8299	-2.5518	-46.0133	
641	127	2	0.4238	17.4966	-1.609	-46.0133	
642	128	1	-0.8476	21.258	-2.5959	-45.9621	
643	128	2	0.4238	22.258	-2.5959	-45.9621	
644	128	2	0.4238	20.9247	-1.6531	-45.9621	
645	129	1	-0.8476	24.6324	-2.5067	-46.0011	
646	129	2	0.4238	25.6324	-2.5067	-46.0011	
647	129	2	0.4238	24.2991	-1.5639	-46.0011	
648	130	1	-0.8476	-26.353	0.84691	-45.9921	
649	130	2	0.4238	-25.353	0.84691	-45.9921	
650	130	2	0.4238	-26.6863	1.7897	-45.9921	
651	131	1	-0.8476	-22.9706	0.83065	-46.0318	
652	131	2	0.4238	-21.9706	0.83065	-46.0318	
653	131	2	0.4238	-23.3039	1.7735	-46.0318	
654	132	1	-0.8476	-19.5213	0.84345	-46.0028	
655	132	2	0.4238	-18.5213	0.84345	-46.0028	
656	132	2	0.4238	-19.8547	1.7863	-46.0028	
657	133	1	-0.8476	-16.1619	0.86228	-46.0209	
658	133	2	0.4238	-15.1619	0.86228	-46.0209	
659	133	2	0.4238	-16.4952	1.8051	-46.0209	
660	134	1	-0.8476	-12.7905	0.81713	-46.0085	
661	134	2	0.4238	-11.7905	0.81713	-46.0085	
662	134	2	0.4238	-13.1238	1.7599	-46.0085	
663	135	1	-0.8476	-9.3507	0.82625	-45.9546	
664	135	2	0.4238	-8.3507	0.82625	-45.9546	
665	135	2	0.4238	-9.684	1.769	-45.9546	
666	136	1	-0.8476	-5.982	0.8612	-45.9857	
667	136	2	0.4238	-4.982	0.8612	-45.9857	
668	136	2	0.4238	-6.3153	1.804	-45.9857	
669	137	1	-0.8476	-2.5494	0.82718	-46.0489	
670	137	2	0.4238	-1.5494	0.82718	-46.0489	
671	137	2	0.4238	-2.8827	1.77	-46.0489	
672	138	1	-0.8476	0.8968	0.83303	-45.9897	
673	138	2	0.4238	1.8968	0.83303	-45.9897	
674	138	2	0.4238	0.56349	1.7758	-45.9897	
675	139	1	-0.8476	4.2771	0.82899	-46.0389	
676	139	2	0.4238	5.2771	0.82899	-46.0389	
677	139	2	0.4238	3.9438	1.7718	-46.0389	
678	140	1	-0.8476	7.6739	0.80236	-45.9906	
679	140	2	0.4238	8.6739	0.80236	-45.9906	
680	140	2	0.4238	7.3406	1.7452	-45.9906	
681	141	1	-0.8476	11.0411	0.88618	-46.0337	
682	141	2	0.4238	12.0411	0.88618	-46.0337	
683	141	2	0.4238	10.7077	1.829	-46.0337	
684	142	1	-0.8476	14.4706	0.84302	-45.9958	
685	142	2	0.4238	15.4706	0.84302	-45.9958	
686	142	2	0.4238	14.1373	1.7858	-45.9958	
687	143	1	-0.8476	17.8701	0.82432	-46.0012	
688	143	2	0.4238	18.8701	0.82432	-46.0012	
689	143	2	0.4238	17.5368	1.7671	-46.0012	
690	144	1	-0.8476	21.2489	0.87944	-46.0306	
691	144	2	0.4238	22.2489	0.87944	-46.0306	
692	144	2	0.4238	20.9156	1.8222	-46.0306	
693	145	1	-0.8476	24.6555	0.82672	-45.9686	
694	145	2	0.4238	25.6555	0.82672	-45.9686	
695	145	2	0.4238	24.3222	1.7695	-45.9686	
696	146	1	-0.8476	-26.3094	4.206	-46.0068	
697	146	2	0.4238	-25.3094	4.206	-46.0068	
698	146	2	0.4238	-26.6427	5.1488	-46.0068	
699	147	1	-0.8476	-22.9477	4.2184	-46.0065	
700	147	2	0.4238	-21.9477	4.2184	-46.0065	
701	147	2	0.4238	-23.281	5.1612	-46.0065	
702	148	1	-0.8476	-19.5657	4.2985	-46.0044	
703	148	2	0.4238	-18.5657	4.2985	-46.0044	
704	148	2	0.4238	-19.899	5.2413	-46.0044	
705	149	1	-0.8476	-16.1393	4.2202	-45.9978	
706	149	2	0.4238	-15.1393	4.2202	-45.9978	
707	149	2	0.4238	-16.4726	5.163	-45.9978	
708	150	1	-0.8476	-12.7289	4.2326	-46.0439	
709	150	2	0.4238	-11.7289	4.2326	-46.0439	
710	150	2	0.4238	-13.0622	5.1754	-46.0439	
711	151	1	-0.8476	-9.3697	4.23	-45.986	
712	151	2	0.4238	-8.3697	4.23	-45.986	
713	151	2	0.4238	-9.703	5.1728	-45.986	
714	152	1	-0.8476	-5.9619	4.2268	-46.0307	
715	152	2	0.4238	-4.9619	4.2268	-46.0307	
716	152	2	0.4238	-6.2952	5.1696	-46.0307	
717	153	1	-0.8476	-2.592	4.2432	-46.0097	
718	153	2	0.4238	-1.592	4.2432	-46.0097	
719	153	2	0.4238	-2.9253	5.186	-46.0097	
720	154	1	-0.8476	0.87945	4.2278	-45.9638	
721	154	2	0.4238	1.8794	4.2278	-45.9638	
722	154	2	0.4238	0.54614	5.1706	-45.9638	
723	155	1	-0.8476	4.2809	4.2125	-45.965	
724	155	2	0.4238	5.2809	4.2125	-45.965	
725	155	2	0.4238	3.9476	5.1553	-45.965	
726	156	1	-0.8476	7.6606	4.2477	-46.0494	
727	156	2	0.4238	8.6606	4.2477	-46.0494	
728	156	2	0.4238	7.3273	5.1905	-46.0494	
729	157	1	-0.8476	11.0559	4.2528	-45.993	
730	157	2	0.4238	12.0559	4.2528	-45.993	
731	157	2	0.4238	10.7226	5.1956	-45.993	
732	158	1	-0.8476	14.4996	4.2883	-46.0113	
733	158	2	0.4238	15.4996	4.2883	-46.0113	
734	158	2	0.4238	14.1663	5.2311	-46.0113	
735	159	1	-0.8476	17.854	4.2036	-46.0198	
736	159	2	0.4238	18.854	4.2036	-46.0198	
737	159	2	0.4238	17.5207	5.1464	-46.0198	
738	160	1	-0.8476	21.2767	4.239	-46.0218	
739	160	2	0.4238	22.2767	4.239	-46.0218	
740	160	2	0.4238	20.9434	5.1818	-46.0218	
741	161	1	-0.8476	24.6156	4.2862	-46.0439	
742	161	2	0.4238	25.6156	4.2862	-46.0439	
743	161	2	0.4238	24.2823	5.229	-46.0439	
744	162	1	-0.8476	-26.3208	7.6476	-46.0137	
745	162	2	0.4238	-25.3208	7.6476	-46.0137	
746	162	2	0.4238	-26.6541	8.5904	-46.0137	
747	163	1	-0.8476	-22.9098	7.6079	-46.0172	
748	163	2	0.4238	-21.9098	7.6079	-46.0172	
749	163	2	0.4238	-23.2432	8.5507	-46.0172	
750	164	1	-0.8476	-19.5849	7.6875	-45.9862	
751	164	2	0.4238	-18.5849	7.6875	-45.9862	
752	164	2	0.4238	-19.9182	8.6303	-45.9862	
753	165	1	-0.8476	-16.1394	7.6375	-45.9501	
754	165	2	0.4238	-15.1394	7.6375	-45.9501	
755	165	2	0.4238	-16.4727	8.5803	-45.9501	
756	166	1	-0.8476	-12.7123	7.6629	-45.9772	
757	166	2	0.4238	-11.7123	7.6629	-45.9772	
758	166	2	0.4238	-13.0456	8.6057	-45.9772	
759	167	1	-0.8476	-9.3857	7.6579	-46.0031	
760	167	2	0.4238	-8.3857	7.6579	-46.0031	
761	167	2	0.4238	-9.719	8.6007	-46.0031	
762	168	1	-0.8476	-5.9623	7.6918	-45.9837	
763	168	2	0.4238	-4.9623	7.6918	-45.9837	
764	168	2	0.4238	-6.2956	8.6346	-45.9837	
765	169	1	-0.8476	-2.5564	7.6448	-45.9509	
766	169	2	0.4238	-1.5564	7.6448	-45.9509	
767	169	2	0.4238	-2.8897	8.5876	-45.9509	