# System

13763 atoms
9330 bonds
5113 angles
1193 dihedrals
147 impropers

15 atom types
8 bond types
14 angle types
15 dihedral types
1 improper types
extra bond per atom 2
extra angle per atom 1
extra special per atom 2
-27.2         27.2 xlo xhi
-27.2         27.2 ylo yhi
-50  50 zlo zhi

Atoms

1	1	3	-0.115	0	-9.1962	16.198	
2	1	3	-0.115	0	-9.9036	17.4233	
3	1	3	0	0	-9.1962	18.6485	
4	1	3	-0.115	0	-9.9036	19.8738	
5	1	3	0	0	-9.1962	21.099	
6	1	3	-0.115	0	-9.9036	22.3243	
7	1	3	0	0	-9.1962	23.5495	
8	1	3	-0.115	0	-9.9036	24.7748	
9	1	3	0	0	-9.1962	26	
10	1	13	0.15	0	-9.9036	27.2253	
11	1	3	0	0	-9.1962	28.4505	
12	1	3	-0.115	0	-9.9036	29.6758	
13	1	3	0	0	-9.1962	30.901	
14	1	13	0.15	0	-9.9036	32.1263	
15	1	3	0	0	-9.1962	33.3515	
16	1	3	-0.115	0	-9.9036	34.5768	
17	1	3	-0.115	0	-9.1962	35.802	
18	1	13	0.15	0	-7.7814	16.198	
19	1	3	0	0	-7.074	17.4233	
20	1	3	0	0	-7.7814	18.6485	
21	1	3	0	0	-7.074	19.8738	
22	1	3	0	0	-7.7814	21.099	
23	1	3	0	0	-7.074	22.3243	
24	1	3	0	0	-7.7814	23.5495	
25	1	3	0	0	-7.074	24.7748	
26	1	5	0.265	0	-7.7814	26	
27	1	5	0.265	0	-7.074	27.2253	
28	1	3	0	0	-7.7814	28.4505	
29	1	3	0	0	-7.074	29.6758	
30	1	3	0	0	-7.7814	30.901	
31	1	3	0	0	-7.074	32.1263	
32	1	3	0	0	-7.7814	33.3515	
33	1	3	0	0	-7.074	34.5768	
34	1	3	-0.115	0	-7.7814	35.802	
35	1	13	0.15	0	-4.9518	16.198	
36	1	5	0.265	0	-5.6592	17.4233	
37	1	5	0.265	0	-4.9518	18.6485	
38	1	5	0.265	0	-5.6592	19.8738	
39	1	5	0.265	0	-4.9518	21.099	
40	1	3	0	0	-5.6592	22.3243	
41	1	5	0.265	0	-4.9518	23.5495	
42	1	3	0	0	-5.6592	24.7748	
43	1	5	0.265	0	-4.9518	26	
44	1	5	0.265	0	-5.6592	27.2253	
45	1	3	0	0	-4.9518	28.4505	
46	1	3	0	0	-5.6592	29.6758	
47	1	3	0	0	-4.9518	30.901	
48	1	3	0	0	-5.6592	32.1263	
49	1	3	0	0	-4.9518	33.3515	
50	1	3	0	0	-5.6592	34.5768	
51	1	13	0.15	0	-4.9518	35.802	
52	1	3	-0.115	0	-3.537	16.198	
53	1	3	0	0	-2.8296	17.4233	
54	1	3	0	0	-3.537	18.6485	
55	1	3	0	0	-2.8296	19.8738	
56	1	5	0.265	0	-3.537	21.099	
57	1	5	0.265	0	-2.8296	22.3243	
58	1	5	0.265	0	-3.537	23.5495	
59	1	5	0.265	0	-2.8296	24.7748	
60	1	3	0	0	-3.537	26	
61	1	3	0	0	-2.8296	27.2253	
62	1	3	0	0	-3.537	28.4505	
63	1	3	0	0	-2.8296	29.6758	
64	1	3	0	0	-3.537	30.901	
65	1	3	0	0	-2.8296	32.1263	
66	1	3	0	0	-3.537	33.3515	
67	1	3	0	0	-2.8296	34.5768	
68	1	3	-0.115	0	-3.537	35.802	
69	1	3	-0.115	0	-0.7074	16.198	
70	1	3	0	0	-1.4148	17.4233	
71	1	3	0	0	-0.7074	18.6485	
72	1	5	0.265	0	-1.4148	19.8738	
73	1	5	0.265	0	-0.7074	21.099	
74	1	3	0	0	-1.4148	22.3243	
75	1	5	0.265	0	-0.7074	23.5495	
76	1	3	0	0	-1.4148	24.7748	
77	1	3	0	0	-0.7074	26	
78	1	3	0	0	-1.4148	27.2253	
79	1	3	0	0	-0.7074	28.4505	
80	1	3	0	0	-1.4148	29.6758	
81	1	3	0	0	-0.7074	30.901	
82	1	3	0	0	-1.4148	32.1263	
83	1	3	0	0	-0.7074	33.3515	
84	1	3	0	0	-1.4148	34.5768	
85	1	13	0.15	0	-0.7074	35.802	
86	1	3	-0.115	0	0.7074	16.198	
87	1	3	0	0	1.4148	17.4233	
88	1	5	0.265	0	0.7074	18.6485	
89	1	5	0.265	0	1.4148	19.8738	
90	1	3	0	0	0.7074	21.099	
91	1	3	0	0	1.4148	22.3243	
92	1	5	0.265	0	0.7074	23.5495	
93	1	3	0	0	1.4148	24.7748	
94	1	3	0	0	0.7074	26	
95	1	3	0	0	1.4148	27.2253	
96	1	3	0	0	0.7074	28.4505	
97	1	3	0	0	1.4148	29.6758	
98	1	3	0	0	0.7074	30.901	
99	1	3	0	0	1.4148	32.1263	
100	1	3	0	0	0.7074	33.3515	
101	1	3	0	0	1.4148	34.5768	
102	1	3	-0.115	0	0.7074	35.802	
103	1	13	0.15	0	3.537	16.198	
104	1	3	0	0	2.8296	17.4233	
105	1	3	0	0	3.537	18.6485	
106	1	3	0	0	2.8296	19.8738	
107	1	5	0.265	0	3.537	21.099	
108	1	5	0.265	0	2.8296	22.3243	
109	1	3	0	0	3.537	23.5495	
110	1	3	0	0	2.8296	24.7748	
111	1	3	0	0	3.537	26	
112	1	3	0	0	2.8296	27.2253	
113	1	3	0	0	3.537	28.4505	
114	1	3	0	0	2.8296	29.6758	
115	1	3	0	0	3.537	30.901	
116	1	3	0	0	2.8296	32.1263	
117	1	3	0	0	3.537	33.3515	
118	1	3	0	0	2.8296	34.5768	
119	1	3	-0.115	0	3.537	35.802	
120	1	13	0.15	0	4.9518	16.198	
121	1	3	0	0	5.6592	17.4233	
122	1	3	0	0	4.9518	18.6485	
123	1	3	0	0	5.6592	19.8738	
124	1	3	0	0	4.9518	21.099	
125	1	5	0.265	0	5.6592	22.3243	
126	1	5	0.265	0	4.9518	23.5495	
127	1	3	0	0	5.6592	24.7748	
128	1	3	0	0	4.9518	26	
129	1	3	0	0	5.6592	27.2253	
130	1	3	0	0	4.9518	28.4505	
131	1	3	0	0	5.6592	29.6758	
132	1	3	0	0	4.9518	30.901	
133	1	3	0	0	5.6592	32.1263	
134	1	3	0	0	4.9518	33.3515	
135	1	3	0	0	5.6592	34.5768	
136	1	3	-0.115	0	4.9518	35.802	
137	1	3	-0.115	0	7.7814	16.198	
138	1	3	0	0	7.074	17.4233	
139	1	3	0	0	7.7814	18.6485	
140	1	3	0	0	7.074	19.8738	
141	1	3	0	0	7.7814	21.099	
142	1	3	0	0	7.074	22.3243	
143	1	3	0	0	7.7814	23.5495	
144	1	3	0	0	7.074	24.7748	
145	1	3	0	0	7.7814	26	
146	1	3	0	0	7.074	27.2253	
147	1	3	0	0	7.7814	28.4505	
148	1	3	0	0	7.074	29.6758	
149	1	3	0	0	7.7814	30.901	
150	1	3	0	0	7.074	32.1263	
151	1	3	0	0	7.7814	33.3515	
152	1	3	0	0	7.074	34.5768	
153	1	3	-0.115	0	7.7814	35.802	
154	1	3	-0.115	0	9.1962	16.198	
155	1	3	-0.115	0	9.9036	17.4233	
156	1	3	0	0	9.1962	18.6485	
157	1	3	-0.115	0	9.9036	19.8738	
158	1	3	0	0	9.1962	21.099	
159	1	3	-0.115	0	9.9036	22.3243	
160	1	3	0	0	9.1962	23.5495	
161	1	3	-0.115	0	9.9036	24.7748	
162	1	3	0	0	9.1962	26	
163	1	3	-0.115	0	9.9036	27.2253	
164	1	3	0	0	9.1962	28.4505	
165	1	13	0.15	0	9.9036	29.6758	
166	1	3	0	0	9.1962	30.901	
167	1	13	0.15	0	9.9036	32.1263	
168	1	3	0	0	9.1962	33.3515	
169	1	3	-0.115	0	9.9036	34.5768	
170	1	13	0.15	0	9.1962	35.802	
171	1	4	0.115	0	-10.9806	17.4233	
172	1	4	0.115	0	-10.9806	19.8738	
173	1	4	0.115	0	-10.9806	22.3243	
174	1	4	0.115	0	-10.9806	24.7748	
175	1	9	-0.585	0	-11.3036	27.2253	
176	1	4	0.115	0	-10.9806	29.6758	
177	1	9	-0.585	0	-11.3036	32.1263	
178	1	4	0.115	0	-10.9806	34.5768	
179	1	4	0.115	0	10.9806	17.4233	
180	1	4	0.115	0	10.9806	19.8738	
181	1	4	0.115	0	10.9806	22.3243	
182	1	4	0.115	0	10.9806	24.7748	
183	1	4	0.115	0	10.9806	27.2253	
184	1	9	-0.585	0	11.3036	29.6758	
185	1	9	-0.585	0	11.3036	32.1263	
186	1	4	0.115	0	10.9806	34.5768	
187	1	4	0.115	0	-9.7347	15.2653	
188	1	9	-0.585	0	-7.0814	14.9856	
189	1	4	0.115	0	-9.7347	36.7348	
190	1	4	0.115	0	-7.2429	36.7348	
191	1	9	-0.585	0	-5.6518	14.9856	
192	1	4	0.115	0	-2.9985	15.2653	
193	1	9	-0.585	0	-5.6518	37.0145	
194	1	4	0.115	0	-2.9985	36.7348	
195	1	4	0.115	0	-1.2459	15.2653	
196	1	4	0.115	0	1.2459	15.2653	
197	1	9	-0.585	0	-1.4074	37.0145	
198	1	4	0.115	0	1.2459	36.7348	
199	1	9	-0.585	0	2.837	14.9856	
200	1	9	-0.585	0	5.6518	14.9856	
201	1	4	0.115	0	2.9985	36.7348	
202	1	4	0.115	0	5.4903	36.7348	
203	1	4	0.115	0	7.2429	15.2653	
204	1	4	0.115	0	9.7347	15.2653	
205	1	4	0.115	0	7.2429	36.7348	
206	1	9	-0.585	0	9.8962	37.0145	
207	1	7	0.435	-0.7	-12.0036	27.2253	
208	1	7	0.435	-0.7	-12.0036	32.1263	
209	1	7	0.435	-0.7	12.0036	29.6758	
210	1	7	0.435	0.7	12.0036	32.1263	
211	1	7	0.435	-0.7	-6.7314	14.3793	
212	1	7	0.435	-0.7	-6.0018	14.3793	
213	1	7	0.435	-0.7	-6.0018	37.6207	
214	1	7	0.435	-0.7	-1.7574	37.6207	
215	1	7	0.435	0.7	2.487	14.3793	
216	1	7	0.435	0.7	6.0018	14.3793	
217	1	7	0.435	0.7	10.2462	37.6207	
218	1	6	-0.683	1.4	-4.9518	18.6485	
219	1	7	0.418	2.4	-4.9518	18.6485	
220	1	6	-0.683	-1.4	-5.6592	17.4233	
221	1	7	0.418	-2.4	-5.6592	17.4233	
222	1	6	-0.683	1.4	-5.6592	19.8738	
223	1	7	0.418	2.4	-5.6592	19.8738	
224	1	6	-0.683	-1.4	-1.4148	19.8738	
225	1	7	0.418	-2.4	-1.4148	19.8738	
226	1	6	-0.683	-1.4	-4.9518	21.099	
227	1	7	0.418	-2.4	-4.9518	21.099	
228	1	6	-0.683	1.4	-2.8296	22.3243	
229	1	7	0.418	2.4	-2.8296	22.3243	
230	1	6	-0.683	1.4	0.7074	18.6485	
231	1	7	0.418	2.4	0.7074	18.6485	
232	1	6	-0.683	-1.4	-0.7074	21.099	
233	1	7	0.418	-2.4	-0.7074	21.099	
234	1	6	-0.683	1.4	0.7074	23.5495	
235	1	7	0.418	2.4	0.7074	23.5495	
236	1	6	-0.683	-1.4	1.4148	19.8738	
237	1	7	0.418	-2.4	1.4148	19.8738	
238	1	6	-0.683	1.4	-0.7074	23.5495	
239	1	7	0.418	2.4	-0.7074	23.5495	
240	1	6	-0.683	-1.4	-3.537	23.5495	
241	1	7	0.418	-2.4	-3.537	23.5495	
242	1	6	-0.683	1.4	-4.9518	23.5495	
243	1	7	0.418	2.4	-4.9518	23.5495	
244	1	6	-0.683	-1.4	-4.9518	26	
245	1	7	0.418	-2.4	-4.9518	26	
246	1	6	-0.683	-1.4	-3.537	21.099	
247	1	7	0.418	-2.4	-3.537	21.099	
248	1	6	-0.683	-1.4	2.8296	22.3243	
249	1	7	0.418	-2.4	2.8296	22.3243	
250	1	6	-0.683	1.4	-7.7814	26	
251	1	7	0.418	2.4	-7.7814	26	
252	1	6	-0.683	1.4	3.537	21.099	
253	1	7	0.418	2.4	3.537	21.099	
254	1	6	-0.683	1.4	4.9518	23.5495	
255	1	7	0.418	2.4	4.9518	23.5495	
256	1	6	-0.683	-1.4	-7.074	27.2253	
257	1	7	0.418	-2.4	-7.074	27.2253	
258	1	6	-0.683	1.4	5.6592	22.3243	
259	1	7	0.418	2.4	5.6592	22.3243	
260	1	6	-0.683	1.4	-5.6592	27.2253	
261	1	7	0.418	2.4	-5.6592	27.2253	
262	1	6	-0.683	-1.4	-2.8296	24.7748	
263	1	7	0.418	-2.4	-2.8296	24.7748	
264	2	1	-0.8476	-26.3148	-26.3921	-45.9976	
265	2	2	0.4238	-25.3148	-26.3921	-45.9976	
266	2	2	0.4238	-26.6481	-25.4493	-45.9976	
267	3	1	-0.8476	-22.9429	-26.3451	-45.9886	
268	3	2	0.4238	-21.9429	-26.3451	-45.9886	
269	3	2	0.4238	-23.2762	-25.4023	-45.9886	
270	4	1	-0.8476	-19.5797	-26.3862	-45.9923	
271	4	2	0.4238	-18.5797	-26.3862	-45.9923	
272	4	2	0.4238	-19.913	-25.4434	-45.9923	
273	5	1	-0.8476	-16.1191	-26.3682	-45.9737	
274	5	2	0.4238	-15.1191	-26.3682	-45.9737	
275	5	2	0.4238	-16.4524	-25.4254	-45.9737	
276	6	1	-0.8476	-12.7187	-26.3694	-46.0009	
277	6	2	0.4238	-11.7187	-26.3694	-46.0009	
278	6	2	0.4238	-13.052	-25.4266	-46.0009	
279	7	1	-0.8476	-9.3836	-26.3311	-45.9554	
280	7	2	0.4238	-8.3836	-26.3311	-45.9554	
281	7	2	0.4238	-9.7169	-25.3883	-45.9554	
282	8	1	-0.8476	-5.9861	-26.3586	-46.0126	
283	8	2	0.4238	-4.9861	-26.3586	-46.0126	
284	8	2	0.4238	-6.3194	-25.4158	-46.0126	
285	9	1	-0.8476	-2.5718	-26.3166	-45.9998	
286	9	2	0.4238	-1.5718	-26.3166	-45.9998	
287	9	2	0.4238	-2.9051	-25.3738	-45.9998	
288	10	1	-0.8476	0.8299	-26.3575	-46.0104	
289	10	2	0.4238	1.8299	-26.3575	-46.0104	
290	10	2	0.4238	0.49659	-25.4147	-46.0104	
291	11	1	-0.8476	4.2973	-26.3493	-46.0005	
292	11	2	0.4238	5.2973	-26.3493	-46.0005	
293	11	2	0.4238	3.964	-25.4065	-46.0005	
294	12	1	-0.8476	7.6745	-26.3097	-45.9624	
295	12	2	0.4238	8.6745	-26.3097	-45.9624	
296	12	2	0.4238	7.3412	-25.3669	-45.9624	
297	13	1	-0.8476	11.0401	-26.3162	-45.9699	
298	13	2	0.4238	12.0401	-26.3162	-45.9699	
299	13	2	0.4238	10.7068	-25.3734	-45.9699	
300	14	1	-0.8476	14.4066	-26.3205	-46.0473	
301	14	2	0.4238	15.4066	-26.3205	-46.0473	
302	14	2	0.4238	14.0733	-25.3777	-46.0473	
303	15	1	-0.8476	17.8824	-26.3771	-46.0406	
304	15	2	0.4238	18.8824	-26.3771	-46.0406	
305	15	2	0.4238	17.5491	-25.4343	-46.0406	
306	16	1	-0.8476	21.2779	-26.3084	-45.9718	
307	16	2	0.4238	22.2779	-26.3084	-45.9718	
308	16	2	0.4238	20.9446	-25.3656	-45.9718	
309	17	1	-0.8476	24.6172	-26.3332	-45.9607	
310	17	2	0.4238	25.6172	-26.3332	-45.9607	
311	17	2	0.4238	24.2839	-25.3904	-45.9607	
312	18	1	-0.8476	-26.3122	-22.9186	-46.0356	
313	18	2	0.4238	-25.3122	-22.9186	-46.0356	
314	18	2	0.4238	-26.6455	-21.9758	-46.0356	
315	19	1	-0.8476	-22.9812	-22.9381	-46.0002	
316	19	2	0.4238	-21.9812	-22.9381	-46.0002	
317	19	2	0.4238	-23.3146	-21.9953	-46.0002	
318	20	1	-0.8476	-19.5612	-22.9438	-46.0317	
319	20	2	0.4238	-18.5612	-22.9438	-46.0317	
320	20	2	0.4238	-19.8945	-22.001	-46.0317	
321	21	1	-0.8476	-16.1931	-22.9039	-45.9728	
322	21	2	0.4238	-15.1931	-22.9039	-45.9728	
323	21	2	0.4238	-16.5264	-21.9611	-45.9728	
324	22	1	-0.8476	-12.7633	-22.9708	-45.9734	
325	22	2	0.4238	-11.7633	-22.9708	-45.9734	
326	22	2	0.4238	-13.0967	-22.028	-45.9734	
327	23	1	-0.8476	-9.3501	-22.9054	-45.9583	
328	23	2	0.4238	-8.3501	-22.9054	-45.9583	
329	23	2	0.4238	-9.6834	-21.9626	-45.9583	
330	24	1	-0.8476	-5.9092	-22.9491	-46.0251	
331	24	2	0.4238	-4.9092	-22.9491	-46.0251	
332	24	2	0.4238	-6.2426	-22.0063	-46.0251	
333	25	1	-0.8476	-2.518	-22.9097	-46.0204	
334	25	2	0.4238	-1.518	-22.9097	-46.0204	
335	25	2	0.4238	-2.8513	-21.9669	-46.0204	
336	26	1	-0.8476	0.8555	-22.9483	-46.0043	
337	26	2	0.4238	1.8555	-22.9483	-46.0043	
338	26	2	0.4238	0.52219	-22.0055	-46.0043	
339	27	1	-0.8476	4.2124	-22.9414	-46.0434	
340	27	2	0.4238	5.2124	-22.9414	-46.0434	
341	27	2	0.4238	3.8791	-21.9986	-46.0434	
342	28	1	-0.8476	7.6291	-22.9756	-46.0167	
343	28	2	0.4238	8.6291	-22.9756	-46.0167	
344	28	2	0.4238	7.2958	-22.0328	-46.0167	
345	29	1	-0.8476	11.0209	-22.9259	-46.0287	
346	29	2	0.4238	12.0209	-22.9259	-46.0287	
347	29	2	0.4238	10.6876	-21.9831	-46.0287	
348	30	1	-0.8476	14.4648	-22.9311	-46.0256	
349	30	2	0.4238	15.4648	-22.9311	-46.0256	
350	30	2	0.4238	14.1315	-21.9883	-46.0256	
351	31	1	-0.8476	17.802	-22.9581	-46.0276	
352	31	2	0.4238	18.802	-22.9581	-46.0276	
353	31	2	0.4238	17.4687	-22.0153	-46.0276	
354	32	1	-0.8476	21.2516	-22.9201	-46.0151	
355	32	2	0.4238	22.2516	-22.9201	-46.0151	
356	32	2	0.4238	20.9183	-21.9773	-46.0151	
357	33	1	-0.8476	24.639	-22.9965	-46.0108	
358	33	2	0.4238	25.639	-22.9965	-46.0108	
359	33	2	0.4238	24.3056	-22.0537	-46.0108	
360	34	1	-0.8476	-26.3035	-19.5738	-46.0399	
361	34	2	0.4238	-25.3035	-19.5738	-46.0399	
362	34	2	0.4238	-26.6368	-18.631	-46.0399	
363	35	1	-0.8476	-22.9217	-19.5024	-46.0165	
364	35	2	0.4238	-21.9217	-19.5024	-46.0165	
365	35	2	0.4238	-23.255	-18.5596	-46.0165	
366	36	1	-0.8476	-19.5751	-19.5224	-45.9539	
367	36	2	0.4238	-18.5751	-19.5224	-45.9539	
368	36	2	0.4238	-19.9084	-18.5796	-45.9539	
369	37	1	-0.8476	-16.1793	-19.5199	-45.981	
370	37	2	0.4238	-15.1793	-19.5199	-45.981	
371	37	2	0.4238	-16.5126	-18.5771	-45.981	
372	38	1	-0.8476	-12.7567	-19.5789	-46.0069	
373	38	2	0.4238	-11.7567	-19.5789	-46.0069	
374	38	2	0.4238	-13.09	-18.6361	-46.0069	
375	39	1	-0.8476	-9.3348	-19.5555	-45.9721	
376	39	2	0.4238	-8.3348	-19.5555	-45.9721	
377	39	2	0.4238	-9.6681	-18.6127	-45.9721	
378	40	1	-0.8476	-5.9809	-19.5252	-45.9983	
379	40	2	0.4238	-4.9809	-19.5252	-45.9983	
380	40	2	0.4238	-6.3143	-18.5824	-45.9983	
381	41	1	-0.8476	-2.5747	-19.5404	-45.9718	
382	41	2	0.4238	-1.5747	-19.5404	-45.9718	
383	41	2	0.4238	-2.9081	-18.5976	-45.9718	
384	42	1	-0.8476	0.84124	-19.5531	-46.0299	
385	42	2	0.4238	1.8412	-19.5531	-46.0299	
386	42	2	0.4238	0.50793	-18.6103	-46.0299	
387	43	1	-0.8476	4.2499	-19.5789	-45.9806	
388	43	2	0.4238	5.2499	-19.5789	-45.9806	
389	43	2	0.4238	3.9166	-18.6361	-45.9806	
390	44	1	-0.8476	7.6259	-19.5542	-46.0381	
391	44	2	0.4238	8.6259	-19.5542	-46.0381	
392	44	2	0.4238	7.2926	-18.6114	-46.0381	
393	45	1	-0.8476	11.0778	-19.5964	-45.9737	
394	45	2	0.4238	12.0778	-19.5964	-45.9737	
395	45	2	0.4238	10.7445	-18.6536	-45.9737	
396	46	1	-0.8476	14.4537	-19.5922	-45.9825	
397	46	2	0.4238	15.4537	-19.5922	-45.9825	
398	46	2	0.4238	14.1203	-18.6494	-45.9825	
399	47	1	-0.8476	17.874	-19.5896	-45.9787	
400	47	2	0.4238	18.874	-19.5896	-45.9787	
401	47	2	0.4238	17.5407	-18.6468	-45.9787	
402	48	1	-0.8476	21.2161	-19.5041	-46.0104	
403	48	2	0.4238	22.2161	-19.5041	-46.0104	
404	48	2	0.4238	20.8827	-18.5613	-46.0104	
405	49	1	-0.8476	24.6532	-19.5731	-46.0084	
406	49	2	0.4238	25.6532	-19.5731	-46.0084	
407	49	2	0.4238	24.3199	-18.6303	-46.0084	
408	50	1	-0.8476	-26.3016	-16.1822	-45.9659	
409	50	2	0.4238	-25.3016	-16.1822	-45.9659	
410	50	2	0.4238	-26.6349	-15.2394	-45.9659	
411	51	1	-0.8476	-22.944	-16.1261	-45.9771	
412	51	2	0.4238	-21.944	-16.1261	-45.9771	
413	51	2	0.4238	-23.2773	-15.1833	-45.9771	
414	52	1	-0.8476	-19.5063	-16.1898	-45.9795	
415	52	2	0.4238	-18.5063	-16.1898	-45.9795	
416	52	2	0.4238	-19.8397	-15.247	-45.9795	
417	53	1	-0.8476	-16.1611	-16.1447	-46.0059	
418	53	2	0.4238	-15.1611	-16.1447	-46.0059	
419	53	2	0.4238	-16.4944	-15.2019	-46.0059	
420	54	1	-0.8476	-12.7936	-16.1007	-46.0092	
421	54	2	0.4238	-11.7936	-16.1007	-46.0092	
422	54	2	0.4238	-13.1269	-15.1579	-46.0092	
423	55	1	-0.8476	-9.3282	-16.1915	-46.0121	
424	55	2	0.4238	-8.3282	-16.1915	-46.0121	
425	55	2	0.4238	-9.6616	-15.2487	-46.0121	
426	56	1	-0.8476	-5.9347	-16.1452	-46.0262	
427	56	2	0.4238	-4.9347	-16.1452	-46.0262	
428	56	2	0.4238	-6.268	-15.2024	-46.0262	
429	57	1	-0.8476	-2.5616	-16.1327	-46.0375	
430	57	2	0.4238	-1.5616	-16.1327	-46.0375	
431	57	2	0.4238	-2.895	-15.1899	-46.0375	
432	58	1	-0.8476	0.81815	-16.1272	-46.0216	
433	58	2	0.4238	1.8182	-16.1272	-46.0216	
434	58	2	0.4238	0.48484	-15.1844	-46.0216	
435	59	1	-0.8476	4.2256	-16.1171	-46.0468	
436	59	2	0.4238	5.2256	-16.1171	-46.0468	
437	59	2	0.4238	3.8923	-15.1743	-46.0468	
438	60	1	-0.8476	7.6331	-16.1393	-45.9906	
439	60	2	0.4238	8.6331	-16.1393	-45.9906	
440	60	2	0.4238	7.2997	-15.1965	-45.9906	
441	61	1	-0.8476	11.0056	-16.1896	-45.9789	
442	61	2	0.4238	12.0056	-16.1896	-45.9789	
443	61	2	0.4238	10.6723	-15.2468	-45.9789	
444	62	1	-0.8476	14.4348	-16.1708	-45.9749	
445	62	2	0.4238	15.4348	-16.1708	-45.9749	
446	62	2	0.4238	14.1015	-15.228	-45.9749	
447	63	1	-0.8476	17.8088	-16.152	-46.0006	
448	63	2	0.4238	18.8088	-16.152	-46.0006	
449	63	2	0.4238	17.4755	-15.2092	-46.0006	
450	64	1	-0.8476	21.2068	-16.1082	-45.9889	
451	64	2	0.4238	22.2068	-16.1082	-45.9889	
452	64	2	0.4238	20.8735	-15.1654	-45.9889	
453	65	1	-0.8476	24.6787	-16.1831	-45.9985	
454	65	2	0.4238	25.6787	-16.1831	-45.9985	
455	65	2	0.4238	24.3454	-15.2403	-45.9985	
456	66	1	-0.8476	-26.3665	-12.7132	-45.9517	
457	66	2	0.4238	-25.3665	-12.7132	-45.9517	
458	66	2	0.4238	-26.6998	-11.7704	-45.9517	
459	67	1	-0.8476	-22.9374	-12.7032	-45.9586	
460	67	2	0.4238	-21.9374	-12.7032	-45.9586	
461	67	2	0.4238	-23.2707	-11.7604	-45.9586	
462	68	1	-0.8476	-19.5051	-12.7338	-45.9623	
463	68	2	0.4238	-18.5051	-12.7338	-45.9623	
464	68	2	0.4238	-19.8384	-11.791	-45.9623	
465	69	1	-0.8476	-16.1647	-12.733	-46.0467	
466	69	2	0.4238	-15.1647	-12.733	-46.0467	
467	69	2	0.4238	-16.498	-11.7902	-46.0467	
468	70	1	-0.8476	-12.7034	-12.7705	-46.0253	
469	70	2	0.4238	-11.7034	-12.7705	-46.0253	
470	70	2	0.4238	-13.0367	-11.8277	-46.0253	
471	71	1	-0.8476	-9.3157	-12.7276	-46.042	
472	71	2	0.4238	-8.3157	-12.7276	-46.042	
473	71	2	0.4238	-9.649	-11.7848	-46.042	
474	72	1	-0.8476	-5.9661	-12.7389	-45.9792	
475	72	2	0.4238	-4.9661	-12.7389	-45.9792	
476	72	2	0.4238	-6.2995	-11.7961	-45.9792	
477	73	1	-0.8476	-2.5916	-12.7431	-46.0443	
478	73	2	0.4238	-1.5916	-12.7431	-46.0443	
479	73	2	0.4238	-2.9249	-11.8003	-46.0443	
480	74	1	-0.8476	0.82483	-12.7104	-46.0319	
481	74	2	0.4238	1.8248	-12.7104	-46.0319	
482	74	2	0.4238	0.49152	-11.7676	-46.0319	
483	75	1	-0.8476	4.2012	-12.7067	-46.0269	
484	75	2	0.4238	5.2012	-12.7067	-46.0269	
485	75	2	0.4238	3.8678	-11.7639	-46.0269	
486	76	1	-0.8476	7.671	-12.7784	-46.0475	
487	76	2	0.4238	8.671	-12.7784	-46.0475	
488	76	2	0.4238	7.3377	-11.8356	-46.0475	
489	77	1	-0.8476	11.0128	-12.7466	-45.9771	
490	77	2	0.4238	12.0128	-12.7466	-45.9771	
491	77	2	0.4238	10.6795	-11.8038	-45.9771	
492	78	1	-0.8476	14.4501	-12.7867	-46.0402	
493	78	2	0.4238	15.4501	-12.7867	-46.0402	
494	78	2	0.4238	14.1168	-11.8439	-46.0402	
495	79	1	-0.8476	17.8098	-12.7606	-45.9775	
496	79	2	0.4238	18.8098	-12.7606	-45.9775	
497	79	2	0.4238	17.4765	-11.8178	-45.9775	
498	80	1	-0.8476	21.2176	-12.7484	-45.9569	
499	80	2	0.4238	22.2176	-12.7484	-45.9569	
500	80	2	0.4238	20.8843	-11.8056	-45.9569	
501	81	1	-0.8476	24.6291	-12.755	-45.961	
502	81	2	0.4238	25.6291	-12.755	-45.961	
503	81	2	0.4238	24.2958	-11.8122	-45.961	
504	82	1	-0.8476	-26.3522	-9.3082	-45.9553	
505	82	2	0.4238	-25.3522	-9.3082	-45.9553	
506	82	2	0.4238	-26.6855	-8.3654	-45.9553	
507	83	1	-0.8476	-22.9745	-9.3258	-46.0059	
508	83	2	0.4238	-21.9745	-9.3258	-46.0059	
509	83	2	0.4238	-23.3078	-8.383	-46.0059	
510	84	1	-0.8476	-19.5187	-9.3183	-46.0151	
511	84	2	0.4238	-18.5187	-9.3183	-46.0151	
512	84	2	0.4238	-19.852	-8.3755	-46.0151	
513	85	1	-0.8476	-16.126	-9.3068	-46.0122	
514	85	2	0.4238	-15.126	-9.3068	-46.0122	
515	85	2	0.4238	-16.4593	-8.364	-46.0122	
516	86	1	-0.8476	-12.7194	-9.3797	-45.9501	
517	86	2	0.4238	-11.7194	-9.3797	-45.9501	
518	86	2	0.4238	-13.0527	-8.4369	-45.9501	
519	87	1	-0.8476	-9.3044	-9.3093	-45.9731	
520	87	2	0.4238	-8.3044	-9.3093	-45.9731	
521	87	2	0.4238	-9.6377	-8.3665	-45.9731	
522	88	1	-0.8476	-5.9871	-9.3051	-46.015	
523	88	2	0.4238	-4.9871	-9.3051	-46.015	
524	88	2	0.4238	-6.3204	-8.3623	-46.015	
525	89	1	-0.8476	-2.5614	-9.3732	-46.0253	
526	89	2	0.4238	-1.5614	-9.3732	-46.0253	
527	89	2	0.4238	-2.8947	-8.4304	-46.0253	
528	90	1	-0.8476	0.87239	-9.3149	-45.9795	
529	90	2	0.4238	1.8724	-9.3149	-45.9795	
530	90	2	0.4238	0.53908	-8.3721	-45.9795	
531	91	1	-0.8476	4.2453	-9.3472	-45.9718	
532	91	2	0.4238	5.2453	-9.3472	-45.9718	
533	91	2	0.4238	3.912	-8.4044	-45.9718	
534	92	1	-0.8476	7.6229	-9.3487	-45.9817	
535	92	2	0.4238	8.6229	-9.3487	-45.9817	
536	92	2	0.4238	7.2896	-8.4059	-45.9817	
537	93	1	-0.8476	11.0359	-9.3361	-46.0466	
538	93	2	0.4238	12.0359	-9.3361	-46.0466	
539	93	2	0.4238	10.7026	-8.3933	-46.0466	
540	94	1	-0.8476	14.4631	-9.3776	-46.035	
541	94	2	0.4238	15.4631	-9.3776	-46.035	
542	94	2	0.4238	14.1298	-8.4348	-46.035	
543	95	1	-0.8476	17.817	-9.343	-45.9926	
544	95	2	0.4238	18.817	-9.343	-45.9926	
545	95	2	0.4238	17.4837	-8.4002	-45.9926	
546	96	1	-0.8476	21.2673	-9.3158	-45.9809	
547	96	2	0.4238	22.2673	-9.3158	-45.9809	
548	96	2	0.4238	20.934	-8.373	-45.9809	
549	97	1	-0.8476	24.6912	-9.374	-46.0044	
550	97	2	0.4238	25.6912	-9.374	-46.0044	
551	97	2	0.4238	24.3579	-8.4312	-46.0044	
552	98	1	-0.8476	-26.3905	-5.9937	-45.9637	
553	98	2	0.4238	-25.3905	-5.9937	-45.9637	
554	98	2	0.4238	-26.7239	-5.0509	-45.9637	
555	99	1	-0.8476	-22.969	-5.9038	-46.0182	
556	99	2	0.4238	-21.969	-5.9038	-46.0182	
557	99	2	0.4238	-23.3023	-4.961	-46.0182	
558	100	1	-0.8476	-19.5634	-5.9471	-46.0233	
559	100	2	0.4238	-18.5634	-5.9471	-46.0233	
560	100	2	0.4238	-19.8967	-5.0043	-46.0233	
561	101	1	-0.8476	-16.1348	-5.9307	-45.9562	
562	101	2	0.4238	-15.1348	-5.9307	-45.9562	
563	101	2	0.4238	-16.4681	-4.9879	-45.9562	
564	102	1	-0.8476	-12.7329	-5.9841	-45.9605	
565	102	2	0.4238	-11.7329	-5.9841	-45.9605	
566	102	2	0.4238	-13.0663	-5.0413	-45.9605	
567	103	1	-0.8476	-9.3117	-5.9619	-46.0173	
568	103	2	0.4238	-8.3117	-5.9619	-46.0173	
569	103	2	0.4238	-9.645	-5.0191	-46.0173	
570	104	1	-0.8476	-5.9033	-5.9135	-46.0192	
571	104	2	0.4238	-4.9033	-5.9135	-46.0192	
572	104	2	0.4238	-6.2366	-4.9707	-46.0192	
573	105	1	-0.8476	-2.5222	-5.9681	-45.9611	
574	105	2	0.4238	-1.5222	-5.9681	-45.9611	
575	105	2	0.4238	-2.8556	-5.0253	-45.9611	
576	106	1	-0.8476	0.8156	-5.9735	-46.0094	
577	106	2	0.4238	1.8156	-5.9735	-46.0094	
578	106	2	0.4238	0.48229	-5.0307	-46.0094	
579	107	1	-0.8476	4.2658	-5.9684	-46.0391	
580	107	2	0.4238	5.2658	-5.9684	-46.0391	
581	107	2	0.4238	3.9325	-5.0256	-46.0391	
582	108	1	-0.8476	7.6552	-5.9423	-46.0423	
583	108	2	0.4238	8.6552	-5.9423	-46.0423	
584	108	2	0.4238	7.3219	-4.9995	-46.0423	
585	109	1	-0.8476	11.0577	-5.9114	-45.961	
586	109	2	0.4238	12.0577	-5.9114	-45.961	
587	109	2	0.4238	10.7244	-4.9686	-45.961	
588	110	1	-0.8476	14.4751	-5.9877	-45.9903	
589	110	2	0.4238	15.4751	-5.9877	-45.9903	
590	110	2	0.4238	14.1418	-5.0449	-45.9903	
591	111	1	-0.8476	17.8249	-5.9677	-46.0312	
592	111	2	0.4238	18.8249	-5.9677	-46.0312	
593	111	2	0.4238	17.4916	-5.0249	-46.0312	
594	112	1	-0.8476	21.2416	-5.9905	-45.9916	
595	112	2	0.4238	22.2416	-5.9905	-45.9916	
596	112	2	0.4238	20.9083	-5.0477	-45.9916	
597	113	1	-0.8476	24.6142	-5.9103	-46.0164	
598	113	2	0.4238	25.6142	-5.9103	-46.0164	
599	113	2	0.4238	24.2808	-4.9675	-46.0164	
600	114	1	-0.8476	-26.3037	-2.5532	-45.9666	
601	114	2	0.4238	-25.3037	-2.5532	-45.9666	
602	114	2	0.4238	-26.637	-1.6104	-45.9666	
603	115	1	-0.8476	-22.9836	-2.5578	-45.9756	
604	115	2	0.4238	-21.9836	-2.5578	-45.9756	
605	115	2	0.4238	-23.3169	-1.615	-45.9756	
606	116	1	-0.8476	-19.5466	-2.5357	-45.9858	
607	116	2	0.4238	-18.5466	-2.5357	-45.9858	
608	116	2	0.4238	-19.8799	-1.5929	-45.9858	
609	117	1	-0.8476	-16.1413	-2.5678	-46.0351	
610	117	2	0.4238	-15.1413	-2.5678	-46.0351	
611	117	2	0.4238	-16.4746	-1.625	-46.0351	
612	118	1	-0.8476	-12.7497	-2.5564	-45.9829	
613	118	2	0.4238	-11.7497	-2.5564	-45.9829	
614	118	2	0.4238	-13.083	-1.6136	-45.9829	
615	119	1	-0.8476	-9.3785	-2.5573	-46.0074	
616	119	2	0.4238	-8.3785	-2.5573	-46.0074	
617	119	2	0.4238	-9.7118	-1.6145	-46.0074	
618	120	1	-0.8476	-5.9803	-2.5326	-45.9504	
619	120	2	0.4238	-4.9803	-2.5326	-45.9504	
620	120	2	0.4238	-6.3136	-1.5898	-45.9504	
621	121	1	-0.8476	-2.5984	-2.5678	-46.0068	
622	121	2	0.4238	-1.5984	-2.5678	-46.0068	
623	121	2	0.4238	-2.9317	-1.625	-46.0068	
624	122	1	-0.8476	0.8311	-2.5688	-46.0004	
625	122	2	0.4238	1.8311	-2.5688	-46.0004	
626	122	2	0.4238	0.49779	-1.626	-46.0004	
627	123	1	-0.8476	4.2859	-2.517	-46.0164	
628	123	2	0.4238	5.2859	-2.517	-46.0164	
629	123	2	0.4238	3.9526	-1.5742	-46.0164	
630	124	1	-0.8476	7.6033	-2.5051	-46.0279	
631	124	2	0.4238	8.6033	-2.5051	-46.0279	
632	124	2	0.4238	7.27	-1.5623	-46.0279	
633	125	1	-0.8476	11.0818	-2.5139	-46.0326	
634	125	2	0.4238	12.0818	-2.5139	-46.0326	
635	125	2	0.4238	10.7484	-1.5711	-46.0326	
636	126	1	-0.8476	14.4104	-2.579	-46.0061	
637	126	2	0.4238	15.4104	-2.579	-46.0061	
638	126	2	0.4238	14.0771	-1.6362	-46.0061	
639	127	1	-0.8476	17.837	-2.522	-45.9749	
640	127	2	0.4238	18.837	-2.522	-45.9749	
641	127	2	0.4238	17.5037	-1.5792	-45.9749	
642	128	1	-0.8476	21.2383	-2.518	-46.0319	
643	128	2	0.4238	22.2383	-2.518	-46.0319	
644	128	2	0.4238	20.9049	-1.5752	-46.0319	
645	129	1	-0.8476	24.6694	-2.5145	-46.0365	
646	129	2	0.4238	25.6694	-2.5145	-46.0365	
647	129	2	0.4238	24.3361	-1.5717	-46.0365	
648	130	1	-0.8476	-26.3005	0.8037	-46.0083	
649	130	2	0.4238	-25.3005	0.8037	-46.0083	
650	130	2	0.4238	-26.6339	1.7465	-46.0083	
651	131	1	-0.8476	-22.9422	0.827	-46.0171	
652	131	2	0.4238	-21.9422	0.827	-46.0171	
653	131	2	0.4238	-23.2755	1.7698	-46.0171	
654	132	1	-0.8476	-19.5661	0.89269	-46.0185	
655	132	2	0.4238	-18.5661	0.89269	-46.0185	
656	132	2	0.4238	-19.8994	1.8355	-46.0185	
657	133	1	-0.8476	-16.1355	0.85996	-46.0001	
658	133	2	0.4238	-15.1355	0.85996	-46.0001	
659	133	2	0.4238	-16.4688	1.8028	-46.0001	
660	134	1	-0.8476	-12.7305	0.80318	-46.0272	
661	134	2	0.4238	-11.7305	0.80318	-46.0272	
662	134	2	0.4238	-13.0638	1.746	-46.0272	
663	135	1	-0.8476	-9.363	0.89943	-46.03	
664	135	2	0.4238	-8.363	0.89943	-46.03	
665	135	2	0.4238	-9.6963	1.8422	-46.03	
666	136	1	-0.8476	-5.9849	0.88303	-45.9563	
667	136	2	0.4238	-4.9849	0.88303	-45.9563	
668	136	2	0.4238	-6.3183	1.8258	-45.9563	
669	137	1	-0.8476	-2.5518	0.84124	-45.9775	
670	137	2	0.4238	-1.5518	0.84124	-45.9775	
671	137	2	0.4238	-2.8851	1.784	-45.9775	
672	138	1	-0.8476	0.81174	0.87428	-46.0014	
673	138	2	0.4238	1.8117	0.87428	-46.0014	
674	138	2	0.4238	0.47843	1.8171	-46.0014	
675	139	1	-0.8476	4.2631	0.82353	-45.9976	
676	139	2	0.4238	5.2631	0.82353	-45.9976	
677	139	2	0.4238	3.9298	1.7663	-45.9976	
678	140	1	-0.8476	7.6795	0.83322	-45.9945	
679	140	2	0.4238	8.6795	0.83322	-45.9945	
680	140	2	0.4238	7.3462	1.776	-45.9945	
681	141	1	-0.8476	11.0219	0.89126	-45.9642	
682	141	2	0.4238	12.0219	0.89126	-45.9642	
683	141	2	0.4238	10.6886	1.8341	-45.9642	
684	142	1	-0.8476	14.4582	0.81519	-46.0404	
685	142	2	0.4238	15.4582	0.81519	-46.0404	
686	142	2	0.4238	14.1248	1.758	-46.0404	
687	143	1	-0.8476	17.8755	0.89452	-46.0044	
688	143	2	0.4238	18.8755	0.89452	-46.0044	
689	143	2	0.4238	17.5422	1.8373	-46.0044	
690	144	1	-0.8476	21.2743	0.88429	-46.0209	
691	144	2	0.4238	22.2743	0.88429	-46.0209	
692	144	2	0.4238	20.941	1.8271	-46.0209	
693	145	1	-0.8476	24.6411	0.89526	-45.9984	
694	145	2	0.4238	25.6411	0.89526	-45.9984	
695	145	2	0.4238	24.3078	1.8381	-45.9984	
696	146	1	-0.8476	-26.3155	4.2719	-45.9674	
697	146	2	0.4238	-25.3155	4.2719	-45.9674	
698	146	2	0.4238	-26.6488	5.2147	-45.9674	
699	147	1	-0.8476	-22.9225	4.2451	-45.9871	
700	147	2	0.4238	-21.9225	4.2451	-45.9871	
701	147	2	0.4238	-23.2559	5.1879	-45.9871	
702	148	1	-0.8476	-19.5626	4.2659	-45.9934	
703	148	2	0.4238	-18.5626	4.2659	-45.9934	
704	148	2	0.4238	-19.8959	5.2087	-45.9934	
705	149	1	-0.8476	-16.1417	4.2109	-46.0118	
706	149	2	0.4238	-15.1417	4.2109	-46.0118	
707	149	2	0.4238	-16.475	5.1537	-46.0118	
708	150	1	-0.8476	-12.7629	4.2973	-45.9789	
709	150	2	0.4238	-11.7629	4.2973	-45.9789	
710	150	2	0.4238	-13.0962	5.2401	-45.9789	
711	151	1	-0.8476	-9.3481	4.2381	-46.0194	
712	151	2	0.4238	-8.3481	4.2381	-46.0194	
713	151	2	0.4238	-9.6814	5.1809	-46.0194	
714	152	1	-0.8476	-5.913	4.2681	-45.9945	
715	152	2	0.4238	-4.913	4.2681	-45.9945	
716	152	2	0.4238	-6.2463	5.2109	-45.9945	
717	153	1	-0.8476	-2.599	4.2542	-46.0132	
718	153	2	0.4238	-1.599	4.2542	-46.0132	
719	153	2	0.4238	-2.9323	5.197	-46.0132	
720	154	1	-0.8476	0.84659	4.2181	-45.9635	
721	154	2	0.4238	1.8466	4.2181	-45.9635	
722	154	2	0.4238	0.51328	5.1609	-45.9635	
723	155	1	-0.8476	4.2075	4.2068	-46.031	
724	155	2	0.4238	5.2075	4.2068	-46.031	
725	155	2	0.4238	3.8742	5.1496	-46.031	
726	156	1	-0.8476	7.6406	4.2391	-45.9669	
727	156	2	0.4238	8.6406	4.2391	-45.9669	
728	156	2	0.4238	7.3073	5.1819	-45.9669	
729	157	1	-0.8476	11.092	4.2292	-45.9703	
730	157	2	0.4238	12.092	4.2292	-45.9703	
731	157	2	0.4238	10.7587	5.172	-45.9703	
732	158	1	-0.8476	14.4437	4.2919	-45.9631	
733	158	2	0.4238	15.4437	4.2919	-45.9631	
734	158	2	0.4238	14.1104	5.2347	-45.9631	
735	159	1	-0.8476	17.898	4.2064	-46.0355	
736	159	2	0.4238	18.898	4.2064	-46.0355	
737	159	2	0.4238	17.5647	5.1492	-46.0355	
738	160	1	-0.8476	21.2771	4.2238	-46.0483	
739	160	2	0.4238	22.2771	4.2238	-46.0483	
740	160	2	0.4238	20.9437	5.1666	-46.0483	
741	161	1	-0.8476	24.6339	4.2183	-46.0155	
742	161	2	0.4238	25.6339	4.2183	-46.0155	
743	161	2	0.4238	24.3006	5.1611	-46.0155	
744	162	1	-0.8476	-26.3228	7.6612	-46.0416	
745	162	2	0.4238	-25.3228	7.6612	-46.0416	
746	162	2	0.4238	-26.6561	8.604	-46.0416	
747	163	1	-0.8476	-22.915	7.6069	-46.0032	
748	163	2	0.4238	-21.915	7.6069	-46.0032	
749	163	2	0.4238	-23.2483	8.5497	-46.0032	
750	164	1	-0.8476	-19.5135	7.6575	-46.0291	
751	164	2	0.4238	-18.5135	7.6575	-46.0291	
752	164	2	0.4238	-19.8468	8.6003	-46.0291	
753	165	1	-0.8476	-16.1714	7.6529	-45.9705	
754	165	2	0.4238	-15.1714	7.6529	-45.9705	
755	165	2	0.4238	-16.5047	8.5957	-45.9705	
756	166	1	-0.8476	-12.7184	7.6444	-46.01	
757	166	2	0.4238	-11.7184	7.6444	-46.01	
758	166	2	0.4238	-13.0517	8.5872	-46.01	
759	167	1	-0.8476	-9.3807	7.6211	-46.0442	
760	167	2	0.4238	-8.3807	7.6211	-46.0442	
761	167	2	0.4238	-9.714	8.5639	-46.0442	
762	168	1	-0.8476	-5.9461	7.6042	-45.9516	
763	168	2	0.4238	-4.9461	7.6042	-45.9516	
764	168	2	0.4238	-6.2794	8.547	-45.9516	
765	169	1	-0.8476	-2.5691	7.6835	-46.0404	
766	169	2	0.4238	-1.5691	7.6835	-46.0404	
767	169	2	0.4238	-2.9024	8.6263	-46.0404	