# System

13763 atoms
9330 bonds
5113 angles
1193 dihedrals
147 impropers

15 atom types
8 bond types
14 angle types
15 dihedral types
1 improper types
extra bond per atom 2
extra angle per atom 1
extra special per atom 2
-27.2         27.2 xlo xhi
-27.2         27.2 ylo yhi
-50  50 zlo zhi

Atoms

1	1	3	-0.115	0	-9.1962	-7.802	
2	1	3	-0.115	0	-9.9036	-6.5767	
3	1	3	0	0	-9.1962	-5.3515	
4	1	3	-0.115	0	-9.9036	-4.1262	
5	1	3	0	0	-9.1962	-2.901	
6	1	3	-0.115	0	-9.9036	-1.6757	
7	1	3	0	0	-9.1962	-0.45052	
8	1	3	-0.115	0	-9.9036	0.77478	
9	1	3	0	0	-9.1962	2	
10	1	13	0.15	0	-9.9036	3.2253	
11	1	3	0	0	-9.1962	4.4505	
12	1	3	-0.115	0	-9.9036	5.6758	
13	1	3	0	0	-9.1962	6.901	
14	1	13	0.15	0	-9.9036	8.1263	
15	1	3	0	0	-9.1962	9.3515	
16	1	3	-0.115	0	-9.9036	10.5768	
17	1	3	-0.115	0	-9.1962	11.802	
18	1	13	0.15	0	-7.7814	-7.802	
19	1	3	0	0	-7.074	-6.5767	
20	1	3	0	0	-7.7814	-5.3515	
21	1	3	0	0	-7.074	-4.1262	
22	1	3	0	0	-7.7814	-2.901	
23	1	3	0	0	-7.074	-1.6757	
24	1	3	0	0	-7.7814	-0.45052	
25	1	3	0	0	-7.074	0.77478	
26	1	5	0.265	0	-7.7814	2	
27	1	5	0.265	0	-7.074	3.2253	
28	1	3	0	0	-7.7814	4.4505	
29	1	3	0	0	-7.074	5.6758	
30	1	3	0	0	-7.7814	6.901	
31	1	3	0	0	-7.074	8.1263	
32	1	3	0	0	-7.7814	9.3515	
33	1	3	0	0	-7.074	10.5768	
34	1	3	-0.115	0	-7.7814	11.802	
35	1	13	0.15	0	-4.9518	-7.802	
36	1	5	0.265	0	-5.6592	-6.5767	
37	1	5	0.265	0	-4.9518	-5.3515	
38	1	5	0.265	0	-5.6592	-4.1262	
39	1	5	0.265	0	-4.9518	-2.901	
40	1	3	0	0	-5.6592	-1.6757	
41	1	5	0.265	0	-4.9518	-0.45052	
42	1	3	0	0	-5.6592	0.77478	
43	1	5	0.265	0	-4.9518	2	
44	1	5	0.265	0	-5.6592	3.2253	
45	1	3	0	0	-4.9518	4.4505	
46	1	3	0	0	-5.6592	5.6758	
47	1	3	0	0	-4.9518	6.901	
48	1	3	0	0	-5.6592	8.1263	
49	1	3	0	0	-4.9518	9.3515	
50	1	3	0	0	-5.6592	10.5768	
51	1	13	0.15	0	-4.9518	11.802	
52	1	3	-0.115	0	-3.537	-7.802	
53	1	3	0	0	-2.8296	-6.5767	
54	1	3	0	0	-3.537	-5.3515	
55	1	3	0	0	-2.8296	-4.1262	
56	1	5	0.265	0	-3.537	-2.901	
57	1	5	0.265	0	-2.8296	-1.6757	
58	1	5	0.265	0	-3.537	-0.45052	
59	1	5	0.265	0	-2.8296	0.77478	
60	1	3	0	0	-3.537	2	
61	1	3	0	0	-2.8296	3.2253	
62	1	3	0	0	-3.537	4.4505	
63	1	3	0	0	-2.8296	5.6758	
64	1	3	0	0	-3.537	6.901	
65	1	3	0	0	-2.8296	8.1263	
66	1	3	0	0	-3.537	9.3515	
67	1	3	0	0	-2.8296	10.5768	
68	1	3	-0.115	0	-3.537	11.802	
69	1	3	-0.115	0	-0.7074	-7.802	
70	1	3	0	0	-1.4148	-6.5767	
71	1	3	0	0	-0.7074	-5.3515	
72	1	5	0.265	0	-1.4148	-4.1262	
73	1	5	0.265	0	-0.7074	-2.901	
74	1	3	0	0	-1.4148	-1.6757	
75	1	5	0.265	0	-0.7074	-0.45052	
76	1	3	0	0	-1.4148	0.77478	
77	1	3	0	0	-0.7074	2	
78	1	3	0	0	-1.4148	3.2253	
79	1	3	0	0	-0.7074	4.4505	
80	1	3	0	0	-1.4148	5.6758	
81	1	3	0	0	-0.7074	6.901	
82	1	3	0	0	-1.4148	8.1263	
83	1	3	0	0	-0.7074	9.3515	
84	1	3	0	0	-1.4148	10.5768	
85	1	13	0.15	0	-0.7074	11.802	
86	1	3	-0.115	0	0.7074	-7.802	
87	1	3	0	0	1.4148	-6.5767	
88	1	5	0.265	0	0.7074	-5.3515	
89	1	5	0.265	0	1.4148	-4.1262	
90	1	3	0	0	0.7074	-2.901	
91	1	3	0	0	1.4148	-1.6757	
92	1	5	0.265	0	0.7074	-0.45052	
93	1	3	0	0	1.4148	0.77478	
94	1	3	0	0	0.7074	2	
95	1	3	0	0	1.4148	3.2253	
96	1	3	0	0	0.7074	4.4505	
97	1	3	0	0	1.4148	5.6758	
98	1	3	0	0	0.7074	6.901	
99	1	3	0	0	1.4148	8.1263	
100	1	3	0	0	0.7074	9.3515	
101	1	3	0	0	1.4148	10.5768	
102	1	3	-0.115	0	0.7074	11.802	
103	1	13	0.15	0	3.537	-7.802	
104	1	3	0	0	2.8296	-6.5767	
105	1	3	0	0	3.537	-5.3515	
106	1	3	0	0	2.8296	-4.1262	
107	1	5	0.265	0	3.537	-2.901	
108	1	5	0.265	0	2.8296	-1.6757	
109	1	3	0	0	3.537	-0.45052	
110	1	3	0	0	2.8296	0.77478	
111	1	3	0	0	3.537	2	
112	1	3	0	0	2.8296	3.2253	
113	1	3	0	0	3.537	4.4505	
114	1	3	0	0	2.8296	5.6758	
115	1	3	0	0	3.537	6.901	
116	1	3	0	0	2.8296	8.1263	
117	1	3	0	0	3.537	9.3515	
118	1	3	0	0	2.8296	10.5768	
119	1	3	-0.115	0	3.537	11.802	
120	1	13	0.15	0	4.9518	-7.802	
121	1	3	0	0	5.6592	-6.5767	
122	1	3	0	0	4.9518	-5.3515	
123	1	3	0	0	5.6592	-4.1262	
124	1	3	0	0	4.9518	-2.901	
125	1	5	0.265	0	5.6592	-1.6757	
126	1	5	0.265	0	4.9518	-0.45052	
127	1	3	0	0	5.6592	0.77478	
128	1	3	0	0	4.9518	2	
129	1	3	0	0	5.6592	3.2253	
130	1	3	0	0	4.9518	4.4505	
131	1	3	0	0	5.6592	5.6758	
132	1	3	0	0	4.9518	6.901	
133	1	3	0	0	5.6592	8.1263	
134	1	3	0	0	4.9518	9.3515	
135	1	3	0	0	5.6592	10.5768	
136	1	3	-0.115	0	4.9518	11.802	
137	1	3	-0.115	0	7.7814	-7.802	
138	1	3	0	0	7.074	-6.5767	
139	1	3	0	0	7.7814	-5.3515	
140	1	3	0	0	7.074	-4.1262	
141	1	3	0	0	7.7814	-2.901	
142	1	3	0	0	7.074	-1.6757	
143	1	3	0	0	7.7814	-0.45052	
144	1	3	0	0	7.074	0.77478	
145	1	3	0	0	7.7814	2	
146	1	3	0	0	7.074	3.2253	
147	1	3	0	0	7.7814	4.4505	
148	1	3	0	0	7.074	5.6758	
149	1	3	0	0	7.7814	6.901	
150	1	3	0	0	7.074	8.1263	
151	1	3	0	0	7.7814	9.3515	
152	1	3	0	0	7.074	10.5768	
153	1	3	-0.115	0	7.7814	11.802	
154	1	3	-0.115	0	9.1962	-7.802	
155	1	3	-0.115	0	9.9036	-6.5767	
156	1	3	0	0	9.1962	-5.3515	
157	1	3	-0.115	0	9.9036	-4.1262	
158	1	3	0	0	9.1962	-2.901	
159	1	3	-0.115	0	9.9036	-1.6757	
160	1	3	0	0	9.1962	-0.45052	
161	1	3	-0.115	0	9.9036	0.77478	
162	1	3	0	0	9.1962	2	
163	1	3	-0.115	0	9.9036	3.2253	
164	1	3	0	0	9.1962	4.4505	
165	1	13	0.15	0	9.9036	5.6758	
166	1	3	0	0	9.1962	6.901	
167	1	13	0.15	0	9.9036	8.1263	
168	1	3	0	0	9.1962	9.3515	
169	1	3	-0.115	0	9.9036	10.5768	
170	1	13	0.15	0	9.1962	11.802	
171	1	4	0.115	0	-10.9806	-6.5767	
172	1	4	0.115	0	-10.9806	-4.1262	
173	1	4	0.115	0	-10.9806	-1.6757	
174	1	4	0.115	0	-10.9806	0.77478	
175	1	9	-0.585	0	-11.3036	3.2253	
176	1	4	0.115	0	-10.9806	5.6758	
177	1	9	-0.585	0	-11.3036	8.1263	
178	1	4	0.115	0	-10.9806	10.5768	
179	1	4	0.115	0	10.9806	-6.5767	
180	1	4	0.115	0	10.9806	-4.1262	
181	1	4	0.115	0	10.9806	-1.6757	
182	1	4	0.115	0	10.9806	0.77478	
183	1	4	0.115	0	10.9806	3.2253	
184	1	9	-0.585	0	11.3036	5.6758	
185	1	9	-0.585	0	11.3036	8.1263	
186	1	4	0.115	0	10.9806	10.5768	
187	1	4	0.115	0	-9.7347	-8.7347	
188	1	9	-0.585	0	-7.0814	-9.0144	
189	1	4	0.115	0	-9.7347	12.7348	
190	1	4	0.115	0	-7.2429	12.7348	
191	1	9	-0.585	0	-5.6518	-9.0144	
192	1	4	0.115	0	-2.9985	-8.7347	
193	1	9	-0.585	0	-5.6518	13.0145	
194	1	4	0.115	0	-2.9985	12.7348	
195	1	4	0.115	0	-1.2459	-8.7347	
196	1	4	0.115	0	1.2459	-8.7347	
197	1	9	-0.585	0	-1.4074	13.0145	
198	1	4	0.115	0	1.2459	12.7348	
199	1	9	-0.585	0	2.837	-9.0144	
200	1	9	-0.585	0	5.6518	-9.0144	
201	1	4	0.115	0	2.9985	12.7348	
202	1	4	0.115	0	5.4903	12.7348	
203	1	4	0.115	0	7.2429	-8.7347	
204	1	4	0.115	0	9.7347	-8.7347	
205	1	4	0.115	0	7.2429	12.7348	
206	1	9	-0.585	0	9.8962	13.0145	
207	1	7	0.435	-0.7	-12.0036	3.2253	
208	1	7	0.435	-0.7	-12.0036	8.1263	
209	1	7	0.435	-0.7	12.0036	5.6758	
210	1	7	0.435	0.7	12.0036	8.1263	
211	1	7	0.435	-0.7	-6.7314	-9.6207	
212	1	7	0.435	-0.7	-6.0018	-9.6207	
213	1	7	0.435	-0.7	-6.0018	13.6207	
214	1	7	0.435	-0.7	-1.7574	13.6207	
215	1	7	0.435	0.7	2.487	-9.6207	
216	1	7	0.435	0.7	6.0018	-9.6207	
217	1	7	0.435	0.7	10.2462	13.6207	
218	1	6	-0.683	1.4	-4.9518	-5.3515	
219	1	7	0.418	2.4	-4.9518	-5.3515	
220	1	6	-0.683	-1.4	-5.6592	-6.5767	
221	1	7	0.418	-2.4	-5.6592	-6.5767	
222	1	6	-0.683	1.4	-5.6592	-4.1262	
223	1	7	0.418	2.4	-5.6592	-4.1262	
224	1	6	-0.683	-1.4	-1.4148	-4.1262	
225	1	7	0.418	-2.4	-1.4148	-4.1262	
226	1	6	-0.683	-1.4	-4.9518	-2.901	
227	1	7	0.418	-2.4	-4.9518	-2.901	
228	1	6	-0.683	1.4	-2.8296	-1.6757	
229	1	7	0.418	2.4	-2.8296	-1.6757	
230	1	6	-0.683	1.4	0.7074	-5.3515	
231	1	7	0.418	2.4	0.7074	-5.3515	
232	1	6	-0.683	-1.4	-0.7074	-2.901	
233	1	7	0.418	-2.4	-0.7074	-2.901	
234	1	6	-0.683	1.4	0.7074	-0.45052	
235	1	7	0.418	2.4	0.7074	-0.45052	
236	1	6	-0.683	-1.4	1.4148	-4.1262	
237	1	7	0.418	-2.4	1.4148	-4.1262	
238	1	6	-0.683	1.4	-0.7074	-0.45052	
239	1	7	0.418	2.4	-0.7074	-0.45052	
240	1	6	-0.683	-1.4	-3.537	-0.45052	
241	1	7	0.418	-2.4	-3.537	-0.45052	
242	1	6	-0.683	1.4	-4.9518	-0.45052	
243	1	7	0.418	2.4	-4.9518	-0.45052	
244	1	6	-0.683	-1.4	-4.9518	2	
245	1	7	0.418	-2.4	-4.9518	2	
246	1	6	-0.683	-1.4	-3.537	-2.901	
247	1	7	0.418	-2.4	-3.537	-2.901	
248	1	6	-0.683	-1.4	2.8296	-1.6757	
249	1	7	0.418	-2.4	2.8296	-1.6757	
250	1	6	-0.683	1.4	-7.7814	2	
251	1	7	0.418	2.4	-7.7814	2	
252	1	6	-0.683	1.4	3.537	-2.901	
253	1	7	0.418	2.4	3.537	-2.901	
254	1	6	-0.683	1.4	4.9518	-0.45052	
255	1	7	0.418	2.4	4.9518	-0.45052	
256	1	6	-0.683	-1.4	-7.074	3.2253	
257	1	7	0.418	-2.4	-7.074	3.2253	
258	1	6	-0.683	1.4	5.6592	-1.6757	
259	1	7	0.418	2.4	5.6592	-1.6757	
260	1	6	-0.683	1.4	-5.6592	3.2253	
261	1	7	0.418	2.4	-5.6592	3.2253	
262	1	6	-0.683	-1.4	-2.8296	0.77478	
263	1	7	0.418	-2.4	-2.8296	0.77478	
264	2	1	-0.8476	-26.3797	-26.3985	-45.9875	
265	2	2	0.4238	-25.3797	-26.3985	-45.9875	
266	2	2	0.4238	-26.713	-25.4557	-45.9875	
267	3	1	-0.8476	-22.9638	-26.3079	-46.0051	
268	3	2	0.4238	-21.9638	-26.3079	-46.0051	
269	3	2	0.4238	-23.2971	-25.3651	-46.0051	
270	4	1	-0.8476	-19.5263	-26.3433	-46.0045	
271	4	2	0.4238	-18.5263	-26.3433	-46.0045	
272	4	2	0.4238	-19.8597	-25.4005	-46.0045	
273	5	1	-0.8476	-16.1919	-26.3767	-46.0299	
274	5	2	0.4238	-15.1919	-26.3767	-46.0299	
275	5	2	0.4238	-16.5252	-25.4339	-46.0299	
276	6	1	-0.8476	-12.7285	-26.3668	-46.0168	
277	6	2	0.4238	-11.7285	-26.3668	-46.0168	
278	6	2	0.4238	-13.0618	-25.424	-46.0168	
279	7	1	-0.8476	-9.3417	-26.3486	-45.9677	
280	7	2	0.4238	-8.3417	-26.3486	-45.9677	
281	7	2	0.4238	-9.675	-25.4058	-45.9677	
282	8	1	-0.8476	-5.9865	-26.3077	-46.0333	
283	8	2	0.4238	-4.9865	-26.3077	-46.0333	
284	8	2	0.4238	-6.3198	-25.3649	-46.0333	
285	9	1	-0.8476	-2.5897	-26.3465	-46.0125	
286	9	2	0.4238	-1.5897	-26.3465	-46.0125	
287	9	2	0.4238	-2.923	-25.4037	-46.0125	
288	10	1	-0.8476	0.83734	-26.3509	-46.0418	
289	10	2	0.4238	1.8373	-26.3509	-46.0418	
290	10	2	0.4238	0.50403	-25.4081	-46.0418	
291	11	1	-0.8476	4.2771	-26.3702	-46.0167	
292	11	2	0.4238	5.2771	-26.3702	-46.0167	
293	11	2	0.4238	3.9438	-25.4274	-46.0167	
294	12	1	-0.8476	7.6731	-26.39	-46.0294	
295	12	2	0.4238	8.6731	-26.39	-46.0294	
296	12	2	0.4238	7.3398	-25.4472	-46.0294	
297	13	1	-0.8476	11.0709	-26.3069	-46.0345	
298	13	2	0.4238	12.0709	-26.3069	-46.0345	
299	13	2	0.4238	10.7376	-25.3641	-46.0345	
300	14	1	-0.8476	14.4701	-26.314	-45.961	
301	14	2	0.4238	15.4701	-26.314	-45.961	
302	14	2	0.4238	14.1368	-25.3712	-45.961	
303	15	1	-0.8476	17.8245	-26.3215	-45.9797	
304	15	2	0.4238	18.8245	-26.3215	-45.9797	
305	15	2	0.4238	17.4912	-25.3787	-45.9797	
306	16	1	-0.8476	21.2263	-26.3905	-45.9521	
307	16	2	0.4238	22.2263	-26.3905	-45.9521	
308	16	2	0.4238	20.893	-25.4477	-45.9521	
309	17	1	-0.8476	24.6792	-26.3242	-46.0216	
310	17	2	0.4238	25.6792	-26.3242	-46.0216	
311	17	2	0.4238	24.3459	-25.3814	-46.0216	
312	18	1	-0.8476	-26.3556	-22.941	-46.0346	
313	18	2	0.4238	-25.3556	-22.941	-46.0346	
314	18	2	0.4238	-26.6889	-21.9982	-46.0346	
315	19	1	-0.8476	-22.9738	-22.9205	-46.0209	
316	19	2	0.4238	-21.9738	-22.9205	-46.0209	
317	19	2	0.4238	-23.3071	-21.9777	-46.0209	
318	20	1	-0.8476	-19.5996	-22.9693	-45.9743	
319	20	2	0.4238	-18.5996	-22.9693	-45.9743	
320	20	2	0.4238	-19.933	-22.0265	-45.9743	
321	21	1	-0.8476	-16.198	-22.9752	-46.0007	
322	21	2	0.4238	-15.198	-22.9752	-46.0007	
323	21	2	0.4238	-16.5313	-22.0324	-46.0007	
324	22	1	-0.8476	-12.7338	-22.9534	-45.9924	
325	22	2	0.4238	-11.7338	-22.9534	-45.9924	
326	22	2	0.4238	-13.0671	-22.0106	-45.9924	
327	23	1	-0.8476	-9.3934	-22.9992	-45.9848	
328	23	2	0.4238	-8.3934	-22.9992	-45.9848	
329	23	2	0.4238	-9.7267	-22.0564	-45.9848	
330	24	1	-0.8476	-5.9709	-22.9254	-46.0239	
331	24	2	0.4238	-4.9709	-22.9254	-46.0239	
332	24	2	0.4238	-6.3042	-21.9826	-46.0239	
333	25	1	-0.8476	-2.52	-22.9471	-45.9524	
334	25	2	0.4238	-1.52	-22.9471	-45.9524	
335	25	2	0.4238	-2.8533	-22.0043	-45.9524	
336	26	1	-0.8476	0.8948	-22.9756	-46.0421	
337	26	2	0.4238	1.8948	-22.9756	-46.0421	
338	26	2	0.4238	0.56149	-22.0328	-46.0421	
339	27	1	-0.8476	4.2272	-22.9096	-45.9867	
340	27	2	0.4238	5.2272	-22.9096	-45.9867	
341	27	2	0.4238	3.8939	-21.9668	-45.9867	
342	28	1	-0.8476	7.6336	-22.9954	-46.0482	
343	28	2	0.4238	8.6336	-22.9954	-46.0482	
344	28	2	0.4238	7.3003	-22.0526	-46.0482	
345	29	1	-0.8476	11.0982	-22.9544	-46.0073	
346	29	2	0.4238	12.0982	-22.9544	-46.0073	
347	29	2	0.4238	10.7649	-22.0116	-46.0073	
348	30	1	-0.8476	14.494	-22.9325	-46.0413	
349	30	2	0.4238	15.494	-22.9325	-46.0413	
350	30	2	0.4238	14.1607	-21.9897	-46.0413	
351	31	1	-0.8476	17.859	-22.9646	-46.0323	
352	31	2	0.4238	18.859	-22.9646	-46.0323	
353	31	2	0.4238	17.5257	-22.0218	-46.0323	
354	32	1	-0.8476	21.2976	-22.9851	-46.0214	
355	32	2	0.4238	22.2976	-22.9851	-46.0214	
356	32	2	0.4238	20.9643	-22.0423	-46.0214	
357	33	1	-0.8476	24.6894	-22.9422	-46.0456	
358	33	2	0.4238	25.6894	-22.9422	-46.0456	
359	33	2	0.4238	24.356	-21.9994	-46.0456	
360	34	1	-0.8476	-26.3996	-19.5203	-46.0003	
361	34	2	0.4238	-25.3996	-19.5203	-46.0003	
362	34	2	0.4238	-26.7329	-18.5775	-46.0003	
363	35	1	-0.8476	-22.9967	-19.5505	-46.0033	
364	35	2	0.4238	-21.9967	-19.5505	-46.0033	
365	35	2	0.4238	-23.33	-18.6077	-46.0033	
366	36	1	-0.8476	-19.5707	-19.5015	-46.0125	
367	36	2	0.4238	-18.5707	-19.5015	-46.0125	
368	36	2	0.4238	-19.904	-18.5587	-46.0125	
369	37	1	-0.8476	-16.1761	-19.5957	-46.015	
370	37	2	0.4238	-15.1761	-19.5957	-46.015	
371	37	2	0.4238	-16.5094	-18.6529	-46.015	
372	38	1	-0.8476	-12.7547	-19.579	-45.9589	
373	38	2	0.4238	-11.7547	-19.579	-45.9589	
374	38	2	0.4238	-13.088	-18.6362	-45.9589	
375	39	1	-0.8476	-9.3997	-19.5047	-46.046	
376	39	2	0.4238	-8.3997	-19.5047	-46.046	
377	39	2	0.4238	-9.733	-18.5619	-46.046	
378	40	1	-0.8476	-5.9107	-19.5993	-46.0008	
379	40	2	0.4238	-4.9107	-19.5993	-46.0008	
380	40	2	0.4238	-6.244	-18.6565	-46.0008	
381	41	1	-0.8476	-2.5905	-19.5417	-46.0422	
382	41	2	0.4238	-1.5905	-19.5417	-46.0422	
383	41	2	0.4238	-2.9238	-18.5989	-46.0422	
384	42	1	-0.8476	0.89919	-19.563	-45.9982	
385	42	2	0.4238	1.8992	-19.563	-45.9982	
386	42	2	0.4238	0.56588	-18.6202	-45.9982	
387	43	1	-0.8476	4.2164	-19.5886	-45.986	
388	43	2	0.4238	5.2164	-19.5886	-45.986	
389	43	2	0.4238	3.8831	-18.6458	-45.986	
390	44	1	-0.8476	7.6116	-19.5454	-45.966	
391	44	2	0.4238	8.6116	-19.5454	-45.966	
392	44	2	0.4238	7.2782	-18.6026	-45.966	
393	45	1	-0.8476	11.0376	-19.5698	-46.0309	
394	45	2	0.4238	12.0376	-19.5698	-46.0309	
395	45	2	0.4238	10.7043	-18.627	-46.0309	
396	46	1	-0.8476	14.4882	-19.5713	-46.0331	
397	46	2	0.4238	15.4882	-19.5713	-46.0331	
398	46	2	0.4238	14.1549	-18.6285	-46.0331	
399	47	1	-0.8476	17.898	-19.5579	-45.9658	
400	47	2	0.4238	18.898	-19.5579	-45.9658	
401	47	2	0.4238	17.5647	-18.6151	-45.9658	
402	48	1	-0.8476	21.2415	-19.5025	-45.986	
403	48	2	0.4238	22.2415	-19.5025	-45.986	
404	48	2	0.4238	20.9082	-18.5597	-45.986	
405	49	1	-0.8476	24.6036	-19.56	-46.0025	
406	49	2	0.4238	25.6036	-19.56	-46.0025	
407	49	2	0.4238	24.2703	-18.6172	-46.0025	
408	50	1	-0.8476	-26.3579	-16.1964	-45.9833	
409	50	2	0.4238	-25.3579	-16.1964	-45.9833	
410	50	2	0.4238	-26.6912	-15.2536	-45.9833	
411	51	1	-0.8476	-22.9945	-16.1108	-45.9579	
412	51	2	0.4238	-21.9945	-16.1108	-45.9579	
413	51	2	0.4238	-23.3278	-15.168	-45.9579	
414	52	1	-0.8476	-19.5005	-16.1178	-46.037	
415	52	2	0.4238	-18.5005	-16.1178	-46.037	
416	52	2	0.4238	-19.8339	-15.175	-46.037	
417	53	1	-0.8476	-16.1726	-16.1665	-46.0423	
418	53	2	0.4238	-15.1726	-16.1665	-46.0423	
419	53	2	0.4238	-16.5059	-15.2237	-46.0423	
420	54	1	-0.8476	-12.7919	-16.1486	-46.0106	
421	54	2	0.4238	-11.7919	-16.1486	-46.0106	
422	54	2	0.4238	-13.1252	-15.2058	-46.0106	
423	55	1	-0.8476	-9.3441	-16.1043	-45.9923	
424	55	2	0.4238	-8.3441	-16.1043	-45.9923	
425	55	2	0.4238	-9.6774	-15.1615	-45.9923	
426	56	1	-0.8476	-5.9241	-16.1265	-45.967	
427	56	2	0.4238	-4.9241	-16.1265	-45.967	
428	56	2	0.4238	-6.2574	-15.1837	-45.967	
429	57	1	-0.8476	-2.5287	-16.1049	-46.0212	
430	57	2	0.4238	-1.5287	-16.1049	-46.0212	
431	57	2	0.4238	-2.862	-15.1621	-46.0212	
432	58	1	-0.8476	0.89193	-16.1684	-46.0339	
433	58	2	0.4238	1.8919	-16.1684	-46.0339	
434	58	2	0.4238	0.55862	-15.2256	-46.0339	
435	59	1	-0.8476	4.2082	-16.1422	-45.998	
436	59	2	0.4238	5.2082	-16.1422	-45.998	
437	59	2	0.4238	3.8749	-15.1994	-45.998	
438	60	1	-0.8476	7.654	-16.1447	-45.9745	
439	60	2	0.4238	8.654	-16.1447	-45.9745	
440	60	2	0.4238	7.3207	-15.2019	-45.9745	
441	61	1	-0.8476	11.0089	-16.1415	-46.0094	
442	61	2	0.4238	12.0089	-16.1415	-46.0094	
443	61	2	0.4238	10.6756	-15.1987	-46.0094	
444	62	1	-0.8476	14.4342	-16.1549	-45.951	
445	62	2	0.4238	15.4342	-16.1549	-45.951	
446	62	2	0.4238	14.1008	-15.2121	-45.951	
447	63	1	-0.8476	17.8526	-16.1799	-46.0115	
448	63	2	0.4238	18.8526	-16.1799	-46.0115	
449	63	2	0.4238	17.5193	-15.2371	-46.0115	
450	64	1	-0.8476	21.2041	-16.1001	-45.9979	
451	64	2	0.4238	22.2041	-16.1001	-45.9979	
452	64	2	0.4238	20.8708	-15.1573	-45.9979	
453	65	1	-0.8476	24.6259	-16.1291	-46.0415	
454	65	2	0.4238	25.6259	-16.1291	-46.0415	
455	65	2	0.4238	24.2926	-15.1863	-46.0415	
456	66	1	-0.8476	-26.3513	-12.7735	-46.0008	
457	66	2	0.4238	-25.3513	-12.7735	-46.0008	
458	66	2	0.4238	-26.6846	-11.8307	-46.0008	
459	67	1	-0.8476	-22.9505	-12.7587	-46.0193	
460	67	2	0.4238	-21.9505	-12.7587	-46.0193	
461	67	2	0.4238	-23.2838	-11.8159	-46.0193	
462	68	1	-0.8476	-19.589	-12.7353	-45.9939	
463	68	2	0.4238	-18.589	-12.7353	-45.9939	
464	68	2	0.4238	-19.9224	-11.7925	-45.9939	
465	69	1	-0.8476	-16.1085	-12.7583	-45.9894	
466	69	2	0.4238	-15.1085	-12.7583	-45.9894	
467	69	2	0.4238	-16.4418	-11.8155	-45.9894	
468	70	1	-0.8476	-12.7958	-12.7531	-45.9869	
469	70	2	0.4238	-11.7958	-12.7531	-45.9869	
470	70	2	0.4238	-13.1291	-11.8103	-45.9869	
471	71	1	-0.8476	-9.3387	-12.7541	-45.9812	
472	71	2	0.4238	-8.3387	-12.7541	-45.9812	
473	71	2	0.4238	-9.672	-11.8113	-45.9812	
474	72	1	-0.8476	-5.9789	-12.708	-45.9995	
475	72	2	0.4238	-4.9789	-12.708	-45.9995	
476	72	2	0.4238	-6.3122	-11.7652	-45.9995	
477	73	1	-0.8476	-2.5946	-12.7387	-45.9529	
478	73	2	0.4238	-1.5946	-12.7387	-45.9529	
479	73	2	0.4238	-2.9279	-11.7959	-45.9529	
480	74	1	-0.8476	0.87898	-12.7646	-45.9951	
481	74	2	0.4238	1.879	-12.7646	-45.9951	
482	74	2	0.4238	0.54567	-11.8218	-45.9951	
483	75	1	-0.8476	4.2055	-12.7388	-46.0203	
484	75	2	0.4238	5.2055	-12.7388	-46.0203	
485	75	2	0.4238	3.8721	-11.796	-46.0203	
486	76	1	-0.8476	7.6733	-12.7198	-46.0464	
487	76	2	0.4238	8.6733	-12.7198	-46.0464	
488	76	2	0.4238	7.34	-11.777	-46.0464	
489	77	1	-0.8476	11.0121	-12.7784	-45.9918	
490	77	2	0.4238	12.0121	-12.7784	-45.9918	
491	77	2	0.4238	10.6787	-11.8356	-45.9918	
492	78	1	-0.8476	14.4886	-12.7408	-45.9825	
493	78	2	0.4238	15.4886	-12.7408	-45.9825	
494	78	2	0.4238	14.1553	-11.798	-45.9825	
495	79	1	-0.8476	17.8862	-12.7409	-45.9799	
496	79	2	0.4238	18.8862	-12.7409	-45.9799	
497	79	2	0.4238	17.5529	-11.7981	-45.9799	
498	80	1	-0.8476	21.2996	-12.7053	-45.9794	
499	80	2	0.4238	22.2996	-12.7053	-45.9794	
500	80	2	0.4238	20.9663	-11.7625	-45.9794	
501	81	1	-0.8476	24.6864	-12.7783	-45.9869	
502	81	2	0.4238	25.6864	-12.7783	-45.9869	
503	81	2	0.4238	24.3531	-11.8355	-45.9869	
504	82	1	-0.8476	-26.3936	-9.3789	-45.9787	
505	82	2	0.4238	-25.3936	-9.3789	-45.9787	
506	82	2	0.4238	-26.7269	-8.4361	-45.9787	
507	83	1	-0.8476	-22.9565	-9.3406	-46.0257	
508	83	2	0.4238	-21.9565	-9.3406	-46.0257	
509	83	2	0.4238	-23.2898	-8.3978	-46.0257	
510	84	1	-0.8476	-19.5407	-9.3467	-45.9915	
511	84	2	0.4238	-18.5407	-9.3467	-45.9915	
512	84	2	0.4238	-19.874	-8.4039	-45.9915	
513	85	1	-0.8476	-16.1785	-9.3926	-45.9631	
514	85	2	0.4238	-15.1785	-9.3926	-45.9631	
515	85	2	0.4238	-16.5118	-8.4498	-45.9631	
516	86	1	-0.8476	-12.7143	-9.3371	-45.9532	
517	86	2	0.4238	-11.7143	-9.3371	-45.9532	
518	86	2	0.4238	-13.0476	-8.3943	-45.9532	
519	87	1	-0.8476	-9.3164	-9.3567	-46.0261	
520	87	2	0.4238	-8.3164	-9.3567	-46.0261	
521	87	2	0.4238	-9.6497	-8.4139	-46.0261	
522	88	1	-0.8476	-5.9317	-9.3105	-46.0352	
523	88	2	0.4238	-4.9317	-9.3105	-46.0352	
524	88	2	0.4238	-6.265	-8.3677	-46.0352	
525	89	1	-0.8476	-2.5061	-9.3919	-45.9653	
526	89	2	0.4238	-1.5061	-9.3919	-45.9653	
527	89	2	0.4238	-2.8394	-8.4491	-45.9653	
528	90	1	-0.8476	0.84937	-9.3204	-45.9803	
529	90	2	0.4238	1.8494	-9.3204	-45.9803	
530	90	2	0.4238	0.51606	-8.3776	-45.9803	
531	91	1	-0.8476	4.2523	-9.3631	-46.0259	
532	91	2	0.4238	5.2523	-9.3631	-46.0259	
533	91	2	0.4238	3.919	-8.4203	-46.0259	
534	92	1	-0.8476	7.6735	-9.3756	-45.9737	
535	92	2	0.4238	8.6735	-9.3756	-45.9737	
536	92	2	0.4238	7.3402	-8.4328	-45.9737	
537	93	1	-0.8476	11.0378	-9.3878	-45.9917	
538	93	2	0.4238	12.0378	-9.3878	-45.9917	
539	93	2	0.4238	10.7044	-8.445	-45.9917	
540	94	1	-0.8476	14.4636	-9.3659	-46.0094	
541	94	2	0.4238	15.4636	-9.3659	-46.0094	
542	94	2	0.4238	14.1303	-8.4231	-46.0094	
543	95	1	-0.8476	17.8355	-9.353	-46.006	
544	95	2	0.4238	18.8355	-9.353	-46.006	
545	95	2	0.4238	17.5022	-8.4102	-46.006	
546	96	1	-0.8476	21.2438	-9.324	-46.0198	
547	96	2	0.4238	22.2438	-9.324	-46.0198	
548	96	2	0.4238	20.9105	-8.3812	-46.0198	
549	97	1	-0.8476	24.6793	-9.399	-45.9809	
550	97	2	0.4238	25.6793	-9.399	-45.9809	
551	97	2	0.4238	24.346	-8.4562	-45.9809	
552	98	1	-0.8476	-26.3839	-5.9143	-45.956	
553	98	2	0.4238	-25.3839	-5.9143	-45.956	
554	98	2	0.4238	-26.7172	-4.9715	-45.956	
555	99	1	-0.8476	-22.9256	-5.9016	-45.9604	
556	99	2	0.4238	-21.9256	-5.9016	-45.9604	
557	99	2	0.4238	-23.2589	-4.9588	-45.9604	
558	100	1	-0.8476	-19.5552	-5.9746	-45.9539	
559	100	2	0.4238	-18.5552	-5.9746	-45.9539	
560	100	2	0.4238	-19.8885	-5.0318	-45.9539	
561	101	1	-0.8476	-16.1971	-5.9964	-45.9558	
562	101	2	0.4238	-15.1971	-5.9964	-45.9558	
563	101	2	0.4238	-16.5304	-5.0536	-45.9558	
564	102	1	-0.8476	-12.7174	-5.9903	-45.979	
565	102	2	0.4238	-11.7174	-5.9903	-45.979	
566	102	2	0.4238	-13.0507	-5.0475	-45.979	
567	103	1	-0.8476	-9.3375	-5.9514	-46.0084	
568	103	2	0.4238	-8.3375	-5.9514	-46.0084	
569	103	2	0.4238	-9.6708	-5.0086	-46.0084	
570	104	1	-0.8476	-5.929	-5.9078	-45.9908	
571	104	2	0.4238	-4.929	-5.9078	-45.9908	
572	104	2	0.4238	-6.2623	-4.965	-45.9908	
573	105	1	-0.8476	-2.5875	-5.9019	-45.9668	
574	105	2	0.4238	-1.5875	-5.9019	-45.9668	
575	105	2	0.4238	-2.9208	-4.9591	-45.9668	
576	106	1	-0.8476	0.81803	-5.9734	-46.0089	
577	106	2	0.4238	1.818	-5.9734	-46.0089	
578	106	2	0.4238	0.48472	-5.0306	-46.0089	
579	107	1	-0.8476	4.2969	-5.9072	-45.9688	
580	107	2	0.4238	5.2969	-5.9072	-45.9688	
581	107	2	0.4238	3.9636	-4.9644	-45.9688	
582	108	1	-0.8476	7.6112	-5.9609	-45.983	
583	108	2	0.4238	8.6112	-5.9609	-45.983	
584	108	2	0.4238	7.2778	-5.0181	-45.983	
585	109	1	-0.8476	11.013	-5.9164	-46.0189	
586	109	2	0.4238	12.013	-5.9164	-46.0189	
587	109	2	0.4238	10.6797	-4.9736	-46.0189	
588	110	1	-0.8476	14.4936	-5.968	-46.0096	
589	110	2	0.4238	15.4936	-5.968	-46.0096	
590	110	2	0.4238	14.1603	-5.0252	-46.0096	
591	111	1	-0.8476	17.8546	-5.9118	-46.0436	
592	111	2	0.4238	18.8546	-5.9118	-46.0436	
593	111	2	0.4238	17.5213	-4.969	-46.0436	
594	112	1	-0.8476	21.2354	-5.9681	-45.9671	
595	112	2	0.4238	22.2354	-5.9681	-45.9671	
596	112	2	0.4238	20.9021	-5.0253	-45.9671	
597	113	1	-0.8476	24.6646	-5.9456	-46.0155	
598	113	2	0.4238	25.6646	-5.9456	-46.0155	
599	113	2	0.4238	24.3313	-5.0028	-46.0155	
600	114	1	-0.8476	-26.3099	-2.5241	-46.0449	
601	114	2	0.4238	-25.3099	-2.5241	-46.0449	
602	114	2	0.4238	-26.6432	-1.5813	-46.0449	
603	115	1	-0.8476	-22.9463	-2.5807	-46.022	
604	115	2	0.4238	-21.9463	-2.5807	-46.022	
605	115	2	0.4238	-23.2796	-1.6379	-46.022	
606	116	1	-0.8476	-19.5352	-2.5096	-45.9698	
607	116	2	0.4238	-18.5352	-2.5096	-45.9698	
608	116	2	0.4238	-19.8685	-1.5668	-45.9698	
609	117	1	-0.8476	-16.1413	-2.5103	-45.9823	
610	117	2	0.4238	-15.1413	-2.5103	-45.9823	
611	117	2	0.4238	-16.4746	-1.5675	-45.9823	
612	118	1	-0.8476	-12.7387	-2.5896	-46.0443	
613	118	2	0.4238	-11.7387	-2.5896	-46.0443	
614	118	2	0.4238	-13.072	-1.6468	-46.0443	
615	119	1	-0.8476	-9.3579	-2.5302	-46.0371	
616	119	2	0.4238	-8.3579	-2.5302	-46.0371	
617	119	2	0.4238	-9.6912	-1.5874	-46.0371	
618	120	1	-0.8476	-5.9586	-2.5877	-46.0421	
619	120	2	0.4238	-4.9586	-2.5877	-46.0421	
620	120	2	0.4238	-6.2919	-1.6449	-46.0421	
621	121	1	-0.8476	-2.5773	-2.5318	-46.0098	
622	121	2	0.4238	-1.5773	-2.5318	-46.0098	
623	121	2	0.4238	-2.9106	-1.589	-46.0098	
624	122	1	-0.8476	0.86281	-2.5345	-46.0419	
625	122	2	0.4238	1.8628	-2.5345	-46.0419	
626	122	2	0.4238	0.5295	-1.5917	-46.0419	
627	123	1	-0.8476	4.2624	-2.5192	-46.0308	
628	123	2	0.4238	5.2624	-2.5192	-46.0308	
629	123	2	0.4238	3.929	-1.5764	-46.0308	
630	124	1	-0.8476	7.6169	-2.5563	-45.9953	
631	124	2	0.4238	8.6169	-2.5563	-45.9953	
632	124	2	0.4238	7.2835	-1.6135	-45.9953	
633	125	1	-0.8476	11.0016	-2.5503	-46.0169	
634	125	2	0.4238	12.0016	-2.5503	-46.0169	
635	125	2	0.4238	10.6683	-1.6075	-46.0169	
636	126	1	-0.8476	14.492	-2.5108	-45.992	
637	126	2	0.4238	15.492	-2.5108	-45.992	
638	126	2	0.4238	14.1587	-1.568	-45.992	
639	127	1	-0.8476	17.8069	-2.5859	-45.9815	
640	127	2	0.4238	18.8069	-2.5859	-45.9815	
641	127	2	0.4238	17.4736	-1.6431	-45.9815	
642	128	1	-0.8476	21.2008	-2.5633	-45.992	
643	128	2	0.4238	22.2008	-2.5633	-45.992	
644	128	2	0.4238	20.8674	-1.6205	-45.992	
645	129	1	-0.8476	24.61	-2.5256	-45.9581	
646	129	2	0.4238	25.61	-2.5256	-45.9581	
647	129	2	0.4238	24.2767	-1.5828	-45.9581	
648	130	1	-0.8476	-26.3954	0.839	-46.0347	
649	130	2	0.4238	-25.3954	0.839	-46.0347	
650	130	2	0.4238	-26.7287	1.7818	-46.0347	
651	131	1	-0.8476	-22.9474	0.81741	-45.9848	
652	131	2	0.4238	-21.9474	0.81741	-45.9848	
653	131	2	0.4238	-23.2807	1.7602	-45.9848	
654	132	1	-0.8476	-19.5207	0.88736	-46.0214	
655	132	2	0.4238	-18.5207	0.88736	-46.0214	
656	132	2	0.4238	-19.854	1.8302	-46.0214	
657	133	1	-0.8476	-16.1709	0.87106	-45.9943	
658	133	2	0.4238	-15.1709	0.87106	-45.9943	
659	133	2	0.4238	-16.5042	1.8139	-45.9943	
660	134	1	-0.8476	-12.7243	0.88625	-45.9576	
661	134	2	0.4238	-11.7243	0.88625	-45.9576	
662	134	2	0.4238	-13.0576	1.8291	-45.9576	
663	135	1	-0.8476	-9.3398	0.81571	-45.9916	
664	135	2	0.4238	-8.3398	0.81571	-45.9916	
665	135	2	0.4238	-9.6731	1.7585	-45.9916	
666	136	1	-0.8476	-5.959	0.87578	-46.0495	
667	136	2	0.4238	-4.959	0.87578	-46.0495	
668	136	2	0.4238	-6.2923	1.8186	-46.0495	
669	137	1	-0.8476	-2.571	0.83041	-45.9761	
670	137	2	0.4238	-1.571	0.83041	-45.9761	
671	137	2	0.4238	-2.9043	1.7732	-45.9761	
672	138	1	-0.8476	0.86607	0.8303	-46.0217	
673	138	2	0.4238	1.8661	0.8303	-46.0217	
674	138	2	0.4238	0.53276	1.7731	-46.0217	
675	139	1	-0.8476	4.2931	0.82917	-45.9725	
676	139	2	0.4238	5.2931	0.82917	-45.9725	
677	139	2	0.4238	3.9598	1.772	-45.9725	
678	140	1	-0.8476	7.6799	0.86584	-45.9761	
679	140	2	0.4238	8.6799	0.86584	-45.9761	
680	140	2	0.4238	7.3465	1.8086	-45.9761	
681	141	1	-0.8476	11.0442	0.895	-45.9948	
682	141	2	0.4238	12.0442	0.895	-45.9948	
683	141	2	0.4238	10.7109	1.8378	-45.9948	
684	142	1	-0.8476	14.4509	0.81824	-45.9803	
685	142	2	0.4238	15.4509	0.81824	-45.9803	
686	142	2	0.4238	14.1176	1.761	-45.9803	
687	143	1	-0.8476	17.8863	0.88272	-46.0002	
688	143	2	0.4238	18.8863	0.88272	-46.0002	
689	143	2	0.4238	17.553	1.8255	-46.0002	
690	144	1	-0.8476	21.2083	0.8809	-46.0412	
691	144	2	0.4238	22.2083	0.8809	-46.0412	
692	144	2	0.4238	20.875	1.8237	-46.0412	
693	145	1	-0.8476	24.6832	0.84345	-45.9585	
694	145	2	0.4238	25.6832	0.84345	-45.9585	
695	145	2	0.4238	24.3498	1.7863	-45.9585	
696	146	1	-0.8476	-26.3699	4.2566	-45.9669	
697	146	2	0.4238	-25.3699	4.2566	-45.9669	
698	146	2	0.4238	-26.7032	5.1994	-45.9669	
699	147	1	-0.8476	-22.934	4.2828	-45.9676	
700	147	2	0.4238	-21.934	4.2828	-45.9676	
701	147	2	0.4238	-23.2674	5.2256	-45.9676	
702	148	1	-0.8476	-19.5613	4.279	-45.9996	
703	148	2	0.4238	-18.5613	4.279	-45.9996	
704	148	2	0.4238	-19.8946	5.2218	-45.9996	
705	149	1	-0.8476	-16.1304	4.2523	-46.045	
706	149	2	0.4238	-15.1304	4.2523	-46.045	
707	149	2	0.4238	-16.4637	5.1951	-46.045	
708	150	1	-0.8476	-12.7447	4.2878	-45.9691	
709	150	2	0.4238	-11.7447	4.2878	-45.9691	
710	150	2	0.4238	-13.078	5.2306	-45.9691	
711	151	1	-0.8476	-9.3968	4.2984	-45.9607	
712	151	2	0.4238	-8.3968	4.2984	-45.9607	
713	151	2	0.4238	-9.7301	5.2412	-45.9607	
714	152	1	-0.8476	-5.9617	4.2813	-46.0313	
715	152	2	0.4238	-4.9617	4.2813	-46.0313	
716	152	2	0.4238	-6.295	5.2241	-46.0313	
717	153	1	-0.8476	-2.5085	4.2422	-45.9776	
718	153	2	0.4238	-1.5085	4.2422	-45.9776	
719	153	2	0.4238	-2.8418	5.185	-45.9776	
720	154	1	-0.8476	0.84899	4.2257	-45.9521	
721	154	2	0.4238	1.849	4.2257	-45.9521	
722	154	2	0.4238	0.51568	5.1685	-45.9521	
723	155	1	-0.8476	4.2803	4.2837	-46.0039	
724	155	2	0.4238	5.2803	4.2837	-46.0039	
725	155	2	0.4238	3.947	5.2265	-46.0039	
726	156	1	-0.8476	7.6906	4.2269	-46.0043	
727	156	2	0.4238	8.6906	4.2269	-46.0043	
728	156	2	0.4238	7.3573	5.1697	-46.0043	
729	157	1	-0.8476	11.0881	4.2974	-45.9736	
730	157	2	0.4238	12.0881	4.2974	-45.9736	
731	157	2	0.4238	10.7548	5.2402	-45.9736	
732	158	1	-0.8476	14.4862	4.2806	-46.0094	
733	158	2	0.4238	15.4862	4.2806	-46.0094	
734	158	2	0.4238	14.1529	5.2234	-46.0094	
735	159	1	-0.8476	17.8657	4.2465	-46.0205	
736	159	2	0.4238	18.8657	4.2465	-46.0205	
737	159	2	0.4238	17.5324	5.1893	-46.0205	
738	160	1	-0.8476	21.2738	4.279	-46.0412	
739	160	2	0.4238	22.2738	4.279	-46.0412	
740	160	2	0.4238	20.9405	5.2218	-46.0412	
741	161	1	-0.8476	24.631	4.2896	-46.0374	
742	161	2	0.4238	25.631	4.2896	-46.0374	
743	161	2	0.4238	24.2977	5.2324	-46.0374	
744	162	1	-0.8476	-26.3489	7.622	-45.9925	
745	162	2	0.4238	-25.3489	7.622	-45.9925	
746	162	2	0.4238	-26.6822	8.5648	-45.9925	
747	163	1	-0.8476	-22.9353	7.6588	-46.0255	
748	163	2	0.4238	-21.9353	7.6588	-46.0255	
749	163	2	0.4238	-23.2686	8.6016	-46.0255	
750	164	1	-0.8476	-19.5393	7.6988	-45.9865	
751	164	2	0.4238	-18.5393	7.6988	-45.9865	
752	164	2	0.4238	-19.8726	8.6416	-45.9865	
753	165	1	-0.8476	-16.1421	7.6129	-46.0381	
754	165	2	0.4238	-15.1421	7.6129	-46.0381	
755	165	2	0.4238	-16.4754	8.5557	-46.0381	
756	166	1	-0.8476	-12.788	7.6903	-45.9609	
757	166	2	0.4238	-11.788	7.6903	-45.9609	
758	166	2	0.4238	-13.1213	8.6331	-45.9609	
759	167	1	-0.8476	-9.3207	7.6868	-46.0419	
760	167	2	0.4238	-8.3207	7.6868	-46.0419	
761	167	2	0.4238	-9.6541	8.6296	-46.0419	
762	168	1	-0.8476	-5.9351	7.6297	-45.9842	
763	168	2	0.4238	-4.9351	7.6297	-45.9842	
764	168	2	0.4238	-6.2684	8.5725	-45.9842	
765	169	1	-0.8476	-2.5254	7.697	-46.011	
766	169	2	0.4238	-1.5254	7.697	-46.011	
767	169	2	0.4238	-2.8587	8.6398	-46.011	
768	170	1	-0.8476	0.82539	7.631	-46.023	
769	170	2	0.4238	1.8254	7.631	-46.023	