# System

13763 atoms
9330 bonds
5113 angles
1193 dihedrals
147 impropers

15 atom types
8 bond types
14 angle types
15 dihedral types
1 improper types
extra bond per atom 2
extra angle per atom 1
extra special per atom 2
-27.2         27.2 xlo xhi
-27.2         27.2 ylo yhi
-50  50 zlo zhi

Atoms

1	1	3	-0.115	0	-9.1962	-9.802	
2	1	3	-0.115	0	-9.9036	-8.5767	
3	1	3	0	0	-9.1962	-7.3515	
4	1	3	-0.115	0	-9.9036	-6.1262	
5	1	3	0	0	-9.1962	-4.901	
6	1	3	-0.115	0	-9.9036	-3.6757	
7	1	3	0	0	-9.1962	-2.4505	
8	1	3	-0.115	0	-9.9036	-1.2252	
9	1	3	0	0	-9.1962	-2.3529e-05	
10	1	13	0.15	0	-9.9036	1.2253	
11	1	3	0	0	-9.1962	2.4505	
12	1	3	-0.115	0	-9.9036	3.6758	
13	1	3	0	0	-9.1962	4.901	
14	1	13	0.15	0	-9.9036	6.1263	
15	1	3	0	0	-9.1962	7.3515	
16	1	3	-0.115	0	-9.9036	8.5768	
17	1	3	-0.115	0	-9.1962	9.802	
18	1	13	0.15	0	-7.7814	-9.802	
19	1	3	0	0	-7.074	-8.5767	
20	1	3	0	0	-7.7814	-7.3515	
21	1	3	0	0	-7.074	-6.1262	
22	1	3	0	0	-7.7814	-4.901	
23	1	3	0	0	-7.074	-3.6757	
24	1	3	0	0	-7.7814	-2.4505	
25	1	3	0	0	-7.074	-1.2252	
26	1	5	0.265	0	-7.7814	-2.3529e-05	
27	1	5	0.265	0	-7.074	1.2253	
28	1	3	0	0	-7.7814	2.4505	
29	1	3	0	0	-7.074	3.6758	
30	1	3	0	0	-7.7814	4.901	
31	1	3	0	0	-7.074	6.1263	
32	1	3	0	0	-7.7814	7.3515	
33	1	3	0	0	-7.074	8.5768	
34	1	3	-0.115	0	-7.7814	9.802	
35	1	13	0.15	0	-4.9518	-9.802	
36	1	5	0.265	0	-5.6592	-8.5767	
37	1	5	0.265	0	-4.9518	-7.3515	
38	1	5	0.265	0	-5.6592	-6.1262	
39	1	5	0.265	0	-4.9518	-4.901	
40	1	3	0	0	-5.6592	-3.6757	
41	1	5	0.265	0	-4.9518	-2.4505	
42	1	3	0	0	-5.6592	-1.2252	
43	1	5	0.265	0	-4.9518	-2.3529e-05	
44	1	5	0.265	0	-5.6592	1.2253	
45	1	3	0	0	-4.9518	2.4505	
46	1	3	0	0	-5.6592	3.6758	
47	1	3	0	0	-4.9518	4.901	
48	1	3	0	0	-5.6592	6.1263	
49	1	3	0	0	-4.9518	7.3515	
50	1	3	0	0	-5.6592	8.5768	
51	1	13	0.15	0	-4.9518	9.802	
52	1	3	-0.115	0	-3.537	-9.802	
53	1	3	0	0	-2.8296	-8.5767	
54	1	3	0	0	-3.537	-7.3515	
55	1	3	0	0	-2.8296	-6.1262	
56	1	5	0.265	0	-3.537	-4.901	
57	1	5	0.265	0	-2.8296	-3.6757	
58	1	5	0.265	0	-3.537	-2.4505	
59	1	5	0.265	0	-2.8296	-1.2252	
60	1	3	0	0	-3.537	-2.3529e-05	
61	1	3	0	0	-2.8296	1.2253	
62	1	3	0	0	-3.537	2.4505	
63	1	3	0	0	-2.8296	3.6758	
64	1	3	0	0	-3.537	4.901	
65	1	3	0	0	-2.8296	6.1263	
66	1	3	0	0	-3.537	7.3515	
67	1	3	0	0	-2.8296	8.5768	
68	1	3	-0.115	0	-3.537	9.802	
69	1	3	-0.115	0	-0.7074	-9.802	
70	1	3	0	0	-1.4148	-8.5767	
71	1	3	0	0	-0.7074	-7.3515	
72	1	5	0.265	0	-1.4148	-6.1262	
73	1	5	0.265	0	-0.7074	-4.901	
74	1	3	0	0	-1.4148	-3.6757	
75	1	5	0.265	0	-0.7074	-2.4505	
76	1	3	0	0	-1.4148	-1.2252	
77	1	3	0	0	-0.7074	-2.3529e-05	
78	1	3	0	0	-1.4148	1.2253	
79	1	3	0	0	-0.7074	2.4505	
80	1	3	0	0	-1.4148	3.6758	
81	1	3	0	0	-0.7074	4.901	
82	1	3	0	0	-1.4148	6.1263	
83	1	3	0	0	-0.7074	7.3515	
84	1	3	0	0	-1.4148	8.5768	
85	1	13	0.15	0	-0.7074	9.802	
86	1	3	-0.115	0	0.7074	-9.802	
87	1	3	0	0	1.4148	-8.5767	
88	1	5	0.265	0	0.7074	-7.3515	
89	1	5	0.265	0	1.4148	-6.1262	
90	1	3	0	0	0.7074	-4.901	
91	1	3	0	0	1.4148	-3.6757	
92	1	5	0.265	0	0.7074	-2.4505	
93	1	3	0	0	1.4148	-1.2252	
94	1	3	0	0	0.7074	-2.3529e-05	
95	1	3	0	0	1.4148	1.2253	
96	1	3	0	0	0.7074	2.4505	
97	1	3	0	0	1.4148	3.6758	
98	1	3	0	0	0.7074	4.901	
99	1	3	0	0	1.4148	6.1263	
100	1	3	0	0	0.7074	7.3515	
101	1	3	0	0	1.4148	8.5768	
102	1	3	-0.115	0	0.7074	9.802	
103	1	13	0.15	0	3.537	-9.802	
104	1	3	0	0	2.8296	-8.5767	
105	1	3	0	0	3.537	-7.3515	
106	1	3	0	0	2.8296	-6.1262	
107	1	5	0.265	0	3.537	-4.901	
108	1	5	0.265	0	2.8296	-3.6757	
109	1	3	0	0	3.537	-2.4505	
110	1	3	0	0	2.8296	-1.2252	
111	1	3	0	0	3.537	-2.3529e-05	
112	1	3	0	0	2.8296	1.2253	
113	1	3	0	0	3.537	2.4505	
114	1	3	0	0	2.8296	3.6758	
115	1	3	0	0	3.537	4.901	
116	1	3	0	0	2.8296	6.1263	
117	1	3	0	0	3.537	7.3515	
118	1	3	0	0	2.8296	8.5768	
119	1	3	-0.115	0	3.537	9.802	
120	1	13	0.15	0	4.9518	-9.802	
121	1	3	0	0	5.6592	-8.5767	
122	1	3	0	0	4.9518	-7.3515	
123	1	3	0	0	5.6592	-6.1262	
124	1	3	0	0	4.9518	-4.901	
125	1	5	0.265	0	5.6592	-3.6757	
126	1	5	0.265	0	4.9518	-2.4505	
127	1	3	0	0	5.6592	-1.2252	
128	1	3	0	0	4.9518	-2.3529e-05	
129	1	3	0	0	5.6592	1.2253	
130	1	3	0	0	4.9518	2.4505	
131	1	3	0	0	5.6592	3.6758	
132	1	3	0	0	4.9518	4.901	
133	1	3	0	0	5.6592	6.1263	
134	1	3	0	0	4.9518	7.3515	
135	1	3	0	0	5.6592	8.5768	
136	1	3	-0.115	0	4.9518	9.802	
137	1	3	-0.115	0	7.7814	-9.802	
138	1	3	0	0	7.074	-8.5767	
139	1	3	0	0	7.7814	-7.3515	
140	1	3	0	0	7.074	-6.1262	
141	1	3	0	0	7.7814	-4.901	
142	1	3	0	0	7.074	-3.6757	
143	1	3	0	0	7.7814	-2.4505	
144	1	3	0	0	7.074	-1.2252	
145	1	3	0	0	7.7814	-2.3529e-05	
146	1	3	0	0	7.074	1.2253	
147	1	3	0	0	7.7814	2.4505	
148	1	3	0	0	7.074	3.6758	
149	1	3	0	0	7.7814	4.901	
150	1	3	0	0	7.074	6.1263	
151	1	3	0	0	7.7814	7.3515	
152	1	3	0	0	7.074	8.5768	
153	1	3	-0.115	0	7.7814	9.802	
154	1	3	-0.115	0	9.1962	-9.802	
155	1	3	-0.115	0	9.9036	-8.5767	
156	1	3	0	0	9.1962	-7.3515	
157	1	3	-0.115	0	9.9036	-6.1262	
158	1	3	0	0	9.1962	-4.901	
159	1	3	-0.115	0	9.9036	-3.6757	
160	1	3	0	0	9.1962	-2.4505	
161	1	3	-0.115	0	9.9036	-1.2252	
162	1	3	0	0	9.1962	-2.3529e-05	
163	1	3	-0.115	0	9.9036	1.2253	
164	1	3	0	0	9.1962	2.4505	
165	1	13	0.15	0	9.9036	3.6758	
166	1	3	0	0	9.1962	4.901	
167	1	13	0.15	0	9.9036	6.1263	
168	1	3	0	0	9.1962	7.3515	
169	1	3	-0.115	0	9.9036	8.5768	
170	1	13	0.15	0	9.1962	9.802	
171	1	4	0.115	0	-10.9806	-8.5767	
172	1	4	0.115	0	-10.9806	-6.1262	
173	1	4	0.115	0	-10.9806	-3.6757	
174	1	4	0.115	0	-10.9806	-1.2252	
175	1	9	-0.585	0	-11.3036	1.2253	
176	1	4	0.115	0	-10.9806	3.6758	
177	1	9	-0.585	0	-11.3036	6.1263	
178	1	4	0.115	0	-10.9806	8.5768	
179	1	4	0.115	0	10.9806	-8.5767	
180	1	4	0.115	0	10.9806	-6.1262	
181	1	4	0.115	0	10.9806	-3.6757	
182	1	4	0.115	0	10.9806	-1.2252	
183	1	4	0.115	0	10.9806	1.2253	
184	1	9	-0.585	0	11.3036	3.6758	
185	1	9	-0.585	0	11.3036	6.1263	
186	1	4	0.115	0	10.9806	8.5768	
187	1	4	0.115	0	-9.7347	-10.7347	
188	1	9	-0.585	0	-7.0814	-11.0144	
189	1	4	0.115	0	-9.7347	10.7348	
190	1	4	0.115	0	-7.2429	10.7348	
191	1	9	-0.585	0	-5.6518	-11.0144	
192	1	4	0.115	0	-2.9985	-10.7347	
193	1	9	-0.585	0	-5.6518	11.0145	
194	1	4	0.115	0	-2.9985	10.7348	
195	1	4	0.115	0	-1.2459	-10.7347	
196	1	4	0.115	0	1.2459	-10.7347	
197	1	9	-0.585	0	-1.4074	11.0145	
198	1	4	0.115	0	1.2459	10.7348	
199	1	9	-0.585	0	2.837	-11.0144	
200	1	9	-0.585	0	5.6518	-11.0144	
201	1	4	0.115	0	2.9985	10.7348	
202	1	4	0.115	0	5.4903	10.7348	
203	1	4	0.115	0	7.2429	-10.7347	
204	1	4	0.115	0	9.7347	-10.7347	
205	1	4	0.115	0	7.2429	10.7348	
206	1	9	-0.585	0	9.8962	11.0145	
207	1	7	0.435	-0.7	-12.0036	1.2253	
208	1	7	0.435	-0.7	-12.0036	6.1263	
209	1	7	0.435	-0.7	12.0036	3.6758	
210	1	7	0.435	0.7	12.0036	6.1263	
211	1	7	0.435	-0.7	-6.7314	-11.6207	
212	1	7	0.435	-0.7	-6.0018	-11.6207	
213	1	7	0.435	-0.7	-6.0018	11.6207	
214	1	7	0.435	-0.7	-1.7574	11.6207	
215	1	7	0.435	0.7	2.487	-11.6207	
216	1	7	0.435	0.7	6.0018	-11.6207	
217	1	7	0.435	0.7	10.2462	11.6207	
218	1	6	-0.683	1.4	-4.9518	-7.3515	
219	1	7	0.418	2.4	-4.9518	-7.3515	
220	1	6	-0.683	-1.4	-5.6592	-8.5767	
221	1	7	0.418	-2.4	-5.6592	-8.5767	
222	1	6	-0.683	1.4	-5.6592	-6.1262	
223	1	7	0.418	2.4	-5.6592	-6.1262	
224	1	6	-0.683	-1.4	-1.4148	-6.1262	
225	1	7	0.418	-2.4	-1.4148	-6.1262	
226	1	6	-0.683	-1.4	-4.9518	-4.901	
227	1	7	0.418	-2.4	-4.9518	-4.901	
228	1	6	-0.683	1.4	-2.8296	-3.6757	
229	1	7	0.418	2.4	-2.8296	-3.6757	
230	1	6	-0.683	1.4	0.7074	-7.3515	
231	1	7	0.418	2.4	0.7074	-7.3515	
232	1	6	-0.683	-1.4	-0.7074	-4.901	
233	1	7	0.418	-2.4	-0.7074	-4.901	
234	1	6	-0.683	1.4	0.7074	-2.4505	
235	1	7	0.418	2.4	0.7074	-2.4505	
236	1	6	-0.683	-1.4	1.4148	-6.1262	
237	1	7	0.418	-2.4	1.4148	-6.1262	
238	1	6	-0.683	1.4	-0.7074	-2.4505	
239	1	7	0.418	2.4	-0.7074	-2.4505	
240	1	6	-0.683	-1.4	-3.537	-2.4505	
241	1	7	0.418	-2.4	-3.537	-2.4505	
242	1	6	-0.683	1.4	-4.9518	-2.4505	
243	1	7	0.418	2.4	-4.9518	-2.4505	
244	1	6	-0.683	-1.4	-4.9518	-2.3529e-05	
245	1	7	0.418	-2.4	-4.9518	-2.3529e-05	
246	1	6	-0.683	-1.4	-3.537	-4.901	
247	1	7	0.418	-2.4	-3.537	-4.901	
248	1	6	-0.683	-1.4	2.8296	-3.6757	
249	1	7	0.418	-2.4	2.8296	-3.6757	
250	1	6	-0.683	1.4	-7.7814	-2.3529e-05	
251	1	7	0.418	2.4	-7.7814	-2.3529e-05	
252	1	6	-0.683	1.4	3.537	-4.901	
253	1	7	0.418	2.4	3.537	-4.901	
254	1	6	-0.683	1.4	4.9518	-2.4505	
255	1	7	0.418	2.4	4.9518	-2.4505	
256	1	6	-0.683	-1.4	-7.074	1.2253	
257	1	7	0.418	-2.4	-7.074	1.2253	
258	1	6	-0.683	1.4	5.6592	-3.6757	
259	1	7	0.418	2.4	5.6592	-3.6757	
260	1	6	-0.683	1.4	-5.6592	1.2253	
261	1	7	0.418	2.4	-5.6592	1.2253	
262	1	6	-0.683	-1.4	-2.8296	-1.2252	
263	1	7	0.418	-2.4	-2.8296	-1.2252	
264	2	1	-0.8476	-26.3537	-26.3092	-46.0217	
265	2	2	0.4238	-25.3537	-26.3092	-46.0217	
266	2	2	0.4238	-26.687	-25.3664	-46.0217	
267	3	1	-0.8476	-22.984	-26.3093	-45.9987	
268	3	2	0.4238	-21.984	-26.3093	-45.9987	
269	3	2	0.4238	-23.3173	-25.3665	-45.9987	
270	4	1	-0.8476	-19.5092	-26.3272	-45.9708	
271	4	2	0.4238	-18.5092	-26.3272	-45.9708	
272	4	2	0.4238	-19.8425	-25.3844	-45.9708	
273	5	1	-0.8476	-16.1097	-26.3032	-45.9889	
274	5	2	0.4238	-15.1097	-26.3032	-45.9889	
275	5	2	0.4238	-16.443	-25.3604	-45.9889	
276	6	1	-0.8476	-12.7507	-26.3631	-46.0119	
277	6	2	0.4238	-11.7507	-26.3631	-46.0119	
278	6	2	0.4238	-13.084	-25.4203	-46.0119	
279	7	1	-0.8476	-9.3669	-26.3943	-46.0219	
280	7	2	0.4238	-8.3669	-26.3943	-46.0219	
281	7	2	0.4238	-9.7002	-25.4515	-46.0219	
282	8	1	-0.8476	-5.9094	-26.3609	-46.0312	
283	8	2	0.4238	-4.9094	-26.3609	-46.0312	
284	8	2	0.4238	-6.2427	-25.4181	-46.0312	
285	9	1	-0.8476	-2.5048	-26.326	-46.0482	
286	9	2	0.4238	-1.5048	-26.326	-46.0482	
287	9	2	0.4238	-2.8381	-25.3832	-46.0482	
288	10	1	-0.8476	0.83676	-26.3627	-46.0055	
289	10	2	0.4238	1.8368	-26.3627	-46.0055	
290	10	2	0.4238	0.50345	-25.4199	-46.0055	
291	11	1	-0.8476	4.2774	-26.3298	-45.9799	
292	11	2	0.4238	5.2774	-26.3298	-45.9799	
293	11	2	0.4238	3.9441	-25.387	-45.9799	
294	12	1	-0.8476	7.6976	-26.338	-46.0225	
295	12	2	0.4238	8.6976	-26.338	-46.0225	
296	12	2	0.4238	7.3643	-25.3952	-46.0225	
297	13	1	-0.8476	11.0015	-26.3616	-46.0427	
298	13	2	0.4238	12.0015	-26.3616	-46.0427	
299	13	2	0.4238	10.6682	-25.4188	-46.0427	
300	14	1	-0.8476	14.4772	-26.312	-45.9898	
301	14	2	0.4238	15.4772	-26.312	-45.9898	
302	14	2	0.4238	14.1439	-25.3692	-45.9898	
303	15	1	-0.8476	17.8617	-26.358	-46.0161	
304	15	2	0.4238	18.8617	-26.358	-46.0161	
305	15	2	0.4238	17.5283	-25.4152	-46.0161	
306	16	1	-0.8476	21.211	-26.3777	-46.0045	
307	16	2	0.4238	22.211	-26.3777	-46.0045	
308	16	2	0.4238	20.8777	-25.4349	-46.0045	
309	17	1	-0.8476	24.6064	-26.3216	-46.049	
310	17	2	0.4238	25.6064	-26.3216	-46.049	
311	17	2	0.4238	24.2731	-25.3788	-46.049	
312	18	1	-0.8476	-26.3009	-22.9111	-45.9726	
313	18	2	0.4238	-25.3009	-22.9111	-45.9726	
314	18	2	0.4238	-26.6342	-21.9683	-45.9726	
315	19	1	-0.8476	-22.9951	-22.9263	-45.964	
316	19	2	0.4238	-21.9951	-22.9263	-45.964	
317	19	2	0.4238	-23.3284	-21.9835	-45.964	
318	20	1	-0.8476	-19.5689	-22.9459	-45.955	
319	20	2	0.4238	-18.5689	-22.9459	-45.955	
320	20	2	0.4238	-19.9023	-22.0031	-45.955	
321	21	1	-0.8476	-16.1747	-22.9054	-45.9852	
322	21	2	0.4238	-15.1747	-22.9054	-45.9852	
323	21	2	0.4238	-16.508	-21.9626	-45.9852	
324	22	1	-0.8476	-12.7679	-22.9771	-45.963	
325	22	2	0.4238	-11.7679	-22.9771	-45.963	
326	22	2	0.4238	-13.1012	-22.0343	-45.963	
327	23	1	-0.8476	-9.3031	-22.9462	-45.9697	
328	23	2	0.4238	-8.3031	-22.9462	-45.9697	
329	23	2	0.4238	-9.6364	-22.0034	-45.9697	
330	24	1	-0.8476	-5.9688	-22.9965	-46.0023	
331	24	2	0.4238	-4.9688	-22.9965	-46.0023	
332	24	2	0.4238	-6.3021	-22.0537	-46.0023	
333	25	1	-0.8476	-2.5458	-22.9649	-46.0299	
334	25	2	0.4238	-1.5458	-22.9649	-46.0299	
335	25	2	0.4238	-2.8792	-22.0221	-46.0299	
336	26	1	-0.8476	0.8417	-22.9725	-45.9702	
337	26	2	0.4238	1.8417	-22.9725	-45.9702	
338	26	2	0.4238	0.50839	-22.0297	-45.9702	
339	27	1	-0.8476	4.2061	-22.9456	-45.9652	
340	27	2	0.4238	5.2061	-22.9456	-45.9652	
341	27	2	0.4238	3.8728	-22.0028	-45.9652	
342	28	1	-0.8476	7.6641	-22.9654	-45.9615	
343	28	2	0.4238	8.6641	-22.9654	-45.9615	
344	28	2	0.4238	7.3308	-22.0226	-45.9615	
345	29	1	-0.8476	11.0754	-22.9696	-46.0447	
346	29	2	0.4238	12.0754	-22.9696	-46.0447	
347	29	2	0.4238	10.7421	-22.0268	-46.0447	
348	30	1	-0.8476	14.4924	-22.9426	-46.0499	
349	30	2	0.4238	15.4924	-22.9426	-46.0499	
350	30	2	0.4238	14.1591	-21.9998	-46.0499	
351	31	1	-0.8476	17.8183	-22.9775	-46.0075	
352	31	2	0.4238	18.8183	-22.9775	-46.0075	
353	31	2	0.4238	17.485	-22.0347	-46.0075	
354	32	1	-0.8476	21.2623	-22.9722	-46.03	
355	32	2	0.4238	22.2623	-22.9722	-46.03	
356	32	2	0.4238	20.929	-22.0294	-46.03	
357	33	1	-0.8476	24.6592	-22.9559	-45.9976	
358	33	2	0.4238	25.6592	-22.9559	-45.9976	
359	33	2	0.4238	24.3259	-22.0131	-45.9976	
360	34	1	-0.8476	-26.3387	-19.5456	-45.9607	
361	34	2	0.4238	-25.3387	-19.5456	-45.9607	
362	34	2	0.4238	-26.672	-18.6028	-45.9607	
363	35	1	-0.8476	-22.96	-19.5459	-45.9797	
364	35	2	0.4238	-21.96	-19.5459	-45.9797	
365	35	2	0.4238	-23.2933	-18.6031	-45.9797	
366	36	1	-0.8476	-19.5728	-19.5321	-45.9571	
367	36	2	0.4238	-18.5728	-19.5321	-45.9571	
368	36	2	0.4238	-19.9061	-18.5893	-45.9571	
369	37	1	-0.8476	-16.1966	-19.5319	-45.9537	
370	37	2	0.4238	-15.1966	-19.5319	-45.9537	
371	37	2	0.4238	-16.5299	-18.5891	-45.9537	
372	38	1	-0.8476	-12.7886	-19.5164	-46.0427	
373	38	2	0.4238	-11.7886	-19.5164	-46.0427	
374	38	2	0.4238	-13.1219	-18.5736	-46.0427	
375	39	1	-0.8476	-9.3087	-19.5868	-45.9732	
376	39	2	0.4238	-8.3087	-19.5868	-45.9732	
377	39	2	0.4238	-9.642	-18.644	-45.9732	
378	40	1	-0.8476	-5.9739	-19.5147	-46.0474	
379	40	2	0.4238	-4.9739	-19.5147	-46.0474	
380	40	2	0.4238	-6.3072	-18.5719	-46.0474	
381	41	1	-0.8476	-2.5593	-19.5739	-46.0474	
382	41	2	0.4238	-1.5593	-19.5739	-46.0474	
383	41	2	0.4238	-2.8926	-18.6311	-46.0474	
384	42	1	-0.8476	0.89666	-19.5176	-46.0011	
385	42	2	0.4238	1.8967	-19.5176	-46.0011	
386	42	2	0.4238	0.56335	-18.5748	-46.0011	
387	43	1	-0.8476	4.2287	-19.5005	-45.988	
388	43	2	0.4238	5.2287	-19.5005	-45.988	
389	43	2	0.4238	3.8953	-18.5577	-45.988	
390	44	1	-0.8476	7.6735	-19.5462	-46.028	
391	44	2	0.4238	8.6735	-19.5462	-46.028	
392	44	2	0.4238	7.3402	-18.6034	-46.028	
393	45	1	-0.8476	11.0607	-19.5465	-46.0413	
394	45	2	0.4238	12.0607	-19.5465	-46.0413	
395	45	2	0.4238	10.7274	-18.6037	-46.0413	
396	46	1	-0.8476	14.4463	-19.5944	-46.0068	
397	46	2	0.4238	15.4463	-19.5944	-46.0068	
398	46	2	0.4238	14.113	-18.6516	-46.0068	
399	47	1	-0.8476	17.8253	-19.5948	-46.0446	
400	47	2	0.4238	18.8253	-19.5948	-46.0446	
401	47	2	0.4238	17.492	-18.652	-46.0446	
402	48	1	-0.8476	21.2873	-19.5625	-45.9951	
403	48	2	0.4238	22.2873	-19.5625	-45.9951	
404	48	2	0.4238	20.9539	-18.6197	-45.9951	
405	49	1	-0.8476	24.6852	-19.5949	-46.0435	
406	49	2	0.4238	25.6852	-19.5949	-46.0435	
407	49	2	0.4238	24.3519	-18.6521	-46.0435	
408	50	1	-0.8476	-26.3881	-16.137	-46.038	
409	50	2	0.4238	-25.3881	-16.137	-46.038	
410	50	2	0.4238	-26.7214	-15.1942	-46.038	
411	51	1	-0.8476	-22.9286	-16.1854	-45.981	
412	51	2	0.4238	-21.9286	-16.1854	-45.981	
413	51	2	0.4238	-23.2619	-15.2426	-45.981	
414	52	1	-0.8476	-19.586	-16.1625	-46.0141	
415	52	2	0.4238	-18.586	-16.1625	-46.0141	
416	52	2	0.4238	-19.9193	-15.2197	-46.0141	
417	53	1	-0.8476	-16.1541	-16.1615	-45.9804	
418	53	2	0.4238	-15.1541	-16.1615	-45.9804	
419	53	2	0.4238	-16.4874	-15.2187	-45.9804	
420	54	1	-0.8476	-12.7401	-16.1331	-45.956	
421	54	2	0.4238	-11.7401	-16.1331	-45.956	
422	54	2	0.4238	-13.0734	-15.1903	-45.956	
423	55	1	-0.8476	-9.3762	-16.1395	-45.9561	
424	55	2	0.4238	-8.3762	-16.1395	-45.9561	
425	55	2	0.4238	-9.7095	-15.1967	-45.9561	
426	56	1	-0.8476	-5.981	-16.1816	-45.9543	
427	56	2	0.4238	-4.981	-16.1816	-45.9543	
428	56	2	0.4238	-6.3143	-15.2388	-45.9543	
429	57	1	-0.8476	-2.5511	-16.1363	-45.9648	
430	57	2	0.4238	-1.5511	-16.1363	-45.9648	
431	57	2	0.4238	-2.8844	-15.1935	-45.9648	
432	58	1	-0.8476	0.87141	-16.1972	-45.9717	
433	58	2	0.4238	1.8714	-16.1972	-45.9717	
434	58	2	0.4238	0.5381	-15.2544	-45.9717	
435	59	1	-0.8476	4.2358	-16.1037	-46.0469	
436	59	2	0.4238	5.2358	-16.1037	-46.0469	
437	59	2	0.4238	3.9025	-15.1609	-46.0469	
438	60	1	-0.8476	7.6648	-16.1406	-45.9728	
439	60	2	0.4238	8.6648	-16.1406	-45.9728	
440	60	2	0.4238	7.3315	-15.1978	-45.9728	
441	61	1	-0.8476	11.0582	-16.1891	-46.007	
442	61	2	0.4238	12.0582	-16.1891	-46.007	
443	61	2	0.4238	10.7248	-15.2463	-46.007	
444	62	1	-0.8476	14.4896	-16.1512	-45.9907	
445	62	2	0.4238	15.4896	-16.1512	-45.9907	
446	62	2	0.4238	14.1563	-15.2084	-45.9907	
447	63	1	-0.8476	17.8686	-16.1896	-45.9583	
448	63	2	0.4238	18.8686	-16.1896	-45.9583	
449	63	2	0.4238	17.5352	-15.2468	-45.9583	
450	64	1	-0.8476	21.261	-16.1865	-46.0221	
451	64	2	0.4238	22.261	-16.1865	-46.0221	
452	64	2	0.4238	20.9277	-15.2437	-46.0221	
453	65	1	-0.8476	24.6879	-16.1877	-46.0054	
454	65	2	0.4238	25.6879	-16.1877	-46.0054	
455	65	2	0.4238	24.3546	-15.2449	-46.0054	
456	66	1	-0.8476	-26.3002	-12.7847	-45.9747	
457	66	2	0.4238	-25.3002	-12.7847	-45.9747	
458	66	2	0.4238	-26.6335	-11.8419	-45.9747	
459	67	1	-0.8476	-22.9836	-12.7476	-45.955	
460	67	2	0.4238	-21.9836	-12.7476	-45.955	
461	67	2	0.4238	-23.3169	-11.8048	-45.955	
462	68	1	-0.8476	-19.5003	-12.751	-46.0224	
463	68	2	0.4238	-18.5003	-12.751	-46.0224	
464	68	2	0.4238	-19.8336	-11.8082	-46.0224	
465	69	1	-0.8476	-16.1866	-12.7533	-46.0124	
466	69	2	0.4238	-15.1866	-12.7533	-46.0124	
467	69	2	0.4238	-16.52	-11.8105	-46.0124	
468	70	1	-0.8476	-12.7253	-12.7826	-46.0384	
469	70	2	0.4238	-11.7253	-12.7826	-46.0384	
470	70	2	0.4238	-13.0586	-11.8398	-46.0384	
471	71	1	-0.8476	-9.3373	-12.7621	-46.0482	
472	71	2	0.4238	-8.3373	-12.7621	-46.0482	
473	71	2	0.4238	-9.6706	-11.8193	-46.0482	
474	72	1	-0.8476	-5.9544	-12.7325	-45.9599	
475	72	2	0.4238	-4.9544	-12.7325	-45.9599	
476	72	2	0.4238	-6.2877	-11.7897	-45.9599	
477	73	1	-0.8476	-2.5483	-12.7462	-45.9867	
478	73	2	0.4238	-1.5483	-12.7462	-45.9867	
479	73	2	0.4238	-2.8816	-11.8034	-45.9867	
480	74	1	-0.8476	0.8334	-12.7596	-46.0065	
481	74	2	0.4238	1.8334	-12.7596	-46.0065	
482	74	2	0.4238	0.50009	-11.8168	-46.0065	
483	75	1	-0.8476	4.2799	-12.7633	-45.9827	
484	75	2	0.4238	5.2799	-12.7633	-45.9827	
485	75	2	0.4238	3.9465	-11.8205	-45.9827	
486	76	1	-0.8476	7.6138	-12.7375	-45.9784	
487	76	2	0.4238	8.6138	-12.7375	-45.9784	
488	76	2	0.4238	7.2805	-11.7947	-45.9784	
489	77	1	-0.8476	11.0537	-12.7606	-46.0249	
490	77	2	0.4238	12.0537	-12.7606	-46.0249	
491	77	2	0.4238	10.7204	-11.8178	-46.0249	
492	78	1	-0.8476	14.4001	-12.7436	-45.9828	
493	78	2	0.4238	15.4001	-12.7436	-45.9828	
494	78	2	0.4238	14.0668	-11.8008	-45.9828	
495	79	1	-0.8476	17.8584	-12.7325	-45.9753	
496	79	2	0.4238	18.8584	-12.7325	-45.9753	
497	79	2	0.4238	17.5251	-11.7897	-45.9753	
498	80	1	-0.8476	21.2771	-12.7294	-46.0138	
499	80	2	0.4238	22.2771	-12.7294	-46.0138	
500	80	2	0.4238	20.9438	-11.7866	-46.0138	
501	81	1	-0.8476	24.6463	-12.7147	-45.9703	
502	81	2	0.4238	25.6463	-12.7147	-45.9703	
503	81	2	0.4238	24.313	-11.7719	-45.9703	
504	82	1	-0.8476	-26.3327	-9.3917	-45.9755	
505	82	2	0.4238	-25.3327	-9.3917	-45.9755	
506	82	2	0.4238	-26.666	-8.4489	-45.9755	
507	83	1	-0.8476	-22.9271	-9.3706	-45.9764	
508	83	2	0.4238	-21.9271	-9.3706	-45.9764	
509	83	2	0.4238	-23.2604	-8.4278	-45.9764	
510	84	1	-0.8476	-19.5127	-9.3516	-45.951	
511	84	2	0.4238	-18.5127	-9.3516	-45.951	
512	84	2	0.4238	-19.8461	-8.4088	-45.951	
513	85	1	-0.8476	-16.1972	-9.3855	-45.9607	
514	85	2	0.4238	-15.1972	-9.3855	-45.9607	
515	85	2	0.4238	-16.5305	-8.4427	-45.9607	
516	86	1	-0.8476	-12.7361	-9.3846	-46.0367	
517	86	2	0.4238	-11.7361	-9.3846	-46.0367	
518	86	2	0.4238	-13.0695	-8.4418	-46.0367	
519	87	1	-0.8476	-9.3047	-9.3254	-45.9586	
520	87	2	0.4238	-8.3047	-9.3254	-45.9586	
521	87	2	0.4238	-9.6381	-8.3826	-45.9586	
522	88	1	-0.8476	-5.997	-9.3525	-45.9562	
523	88	2	0.4238	-4.997	-9.3525	-45.9562	
524	88	2	0.4238	-6.3303	-8.4097	-45.9562	
525	89	1	-0.8476	-2.5459	-9.3317	-46.0355	
526	89	2	0.4238	-1.5459	-9.3317	-46.0355	
527	89	2	0.4238	-2.8792	-8.3889	-46.0355	
528	90	1	-0.8476	0.86465	-9.3596	-45.951	
529	90	2	0.4238	1.8646	-9.3596	-45.951	
530	90	2	0.4238	0.53134	-8.4168	-45.951	
531	91	1	-0.8476	4.2309	-9.3683	-46.0474	
532	91	2	0.4238	5.2309	-9.3683	-46.0474	
533	91	2	0.4238	3.8976	-8.4255	-46.0474	
534	92	1	-0.8476	7.6785	-9.3315	-46.0161	
535	92	2	0.4238	8.6785	-9.3315	-46.0161	
536	92	2	0.4238	7.3452	-8.3887	-46.0161	
537	93	1	-0.8476	11.0389	-9.3777	-45.9774	
538	93	2	0.4238	12.0389	-9.3777	-45.9774	
539	93	2	0.4238	10.7056	-8.4349	-45.9774	
540	94	1	-0.8476	14.4851	-9.3853	-46.0297	
541	94	2	0.4238	15.4851	-9.3853	-46.0297	
542	94	2	0.4238	14.1518	-8.4425	-46.0297	
543	95	1	-0.8476	17.8299	-9.3647	-45.9695	
544	95	2	0.4238	18.8299	-9.3647	-45.9695	
545	95	2	0.4238	17.4966	-8.4219	-45.9695	
546	96	1	-0.8476	21.2154	-9.369	-46.0267	
547	96	2	0.4238	22.2154	-9.369	-46.0267	
548	96	2	0.4238	20.8821	-8.4262	-46.0267	
549	97	1	-0.8476	24.6245	-9.3029	-46.0341	
550	97	2	0.4238	25.6245	-9.3029	-46.0341	
551	97	2	0.4238	24.2911	-8.3601	-46.0341	
552	98	1	-0.8476	-26.3815	-5.9438	-46.0342	
553	98	2	0.4238	-25.3815	-5.9438	-46.0342	
554	98	2	0.4238	-26.7148	-5.001	-46.0342	
555	99	1	-0.8476	-22.9568	-5.9842	-46.0011	
556	99	2	0.4238	-21.9568	-5.9842	-46.0011	
557	99	2	0.4238	-23.2901	-5.0414	-46.0011	
558	100	1	-0.8476	-19.5245	-5.9869	-46.047	
559	100	2	0.4238	-18.5245	-5.9869	-46.047	
560	100	2	0.4238	-19.8578	-5.0441	-46.047	
561	101	1	-0.8476	-16.1647	-5.949	-45.9757	
562	101	2	0.4238	-15.1647	-5.949	-45.9757	
563	101	2	0.4238	-16.4981	-5.0062	-45.9757	
564	102	1	-0.8476	-12.7428	-5.9112	-46.0335	
565	102	2	0.4238	-11.7428	-5.9112	-46.0335	
566	102	2	0.4238	-13.0761	-4.9684	-46.0335	
567	103	1	-0.8476	-9.3809	-5.9982	-45.9683	
568	103	2	0.4238	-8.3809	-5.9982	-45.9683	
569	103	2	0.4238	-9.7142	-5.0554	-45.9683	
570	104	1	-0.8476	-5.9039	-5.9709	-45.9516	
571	104	2	0.4238	-4.9039	-5.9709	-45.9516	
572	104	2	0.4238	-6.2372	-5.0281	-45.9516	
573	105	1	-0.8476	-2.5685	-5.9019	-46.0302	
574	105	2	0.4238	-1.5685	-5.9019	-46.0302	
575	105	2	0.4238	-2.9018	-4.9591	-46.0302	
576	106	1	-0.8476	0.86895	-5.9622	-45.9856	
577	106	2	0.4238	1.869	-5.9622	-45.9856	
578	106	2	0.4238	0.53564	-5.0194	-45.9856	
579	107	1	-0.8476	4.2636	-5.9833	-45.9985	
580	107	2	0.4238	5.2636	-5.9833	-45.9985	
581	107	2	0.4238	3.9303	-5.0405	-45.9985	
582	108	1	-0.8476	7.6037	-5.9002	-46.0272	
583	108	2	0.4238	8.6037	-5.9002	-46.0272	
584	108	2	0.4238	7.2704	-4.9574	-46.0272	
585	109	1	-0.8476	11.0361	-5.9437	-45.9976	
586	109	2	0.4238	12.0361	-5.9437	-45.9976	
587	109	2	0.4238	10.7027	-5.0009	-45.9976	
588	110	1	-0.8476	14.4241	-5.9826	-45.9712	
589	110	2	0.4238	15.4241	-5.9826	-45.9712	
590	110	2	0.4238	14.0907	-5.0398	-45.9712	
591	111	1	-0.8476	17.85	-5.9093	-45.9665	
592	111	2	0.4238	18.85	-5.9093	-45.9665	
593	111	2	0.4238	17.5167	-4.9665	-45.9665	
594	112	1	-0.8476	21.2246	-5.9208	-46.0377	
595	112	2	0.4238	22.2246	-5.9208	-46.0377	
596	112	2	0.4238	20.8913	-4.978	-46.0377	
597	113	1	-0.8476	24.6797	-5.9565	-46.0337	
598	113	2	0.4238	25.6797	-5.9565	-46.0337	
599	113	2	0.4238	24.3464	-5.0137	-46.0337	
600	114	1	-0.8476	-26.3893	-2.5348	-46.0014	
601	114	2	0.4238	-25.3893	-2.5348	-46.0014	
602	114	2	0.4238	-26.7226	-1.592	-46.0014	
603	115	1	-0.8476	-22.9128	-2.5417	-46.0043	
604	115	2	0.4238	-21.9128	-2.5417	-46.0043	
605	115	2	0.4238	-23.2461	-1.5989	-46.0043	
606	116	1	-0.8476	-19.508	-2.5586	-45.9628	
607	116	2	0.4238	-18.508	-2.5586	-45.9628	
608	116	2	0.4238	-19.8413	-1.6158	-45.9628	
609	117	1	-0.8476	-16.1442	-2.528	-46.013	
610	117	2	0.4238	-15.1442	-2.528	-46.013	
611	117	2	0.4238	-16.4775	-1.5852	-46.013	
612	118	1	-0.8476	-12.7528	-2.5332	-46.0393	
613	118	2	0.4238	-11.7528	-2.5332	-46.0393	
614	118	2	0.4238	-13.0861	-1.5904	-46.0393	
615	119	1	-0.8476	-9.3599	-2.5316	-46.0042	
616	119	2	0.4238	-8.3599	-2.5316	-46.0042	
617	119	2	0.4238	-9.6932	-1.5888	-46.0042	
618	120	1	-0.8476	-5.9642	-2.5875	-46.0498	
619	120	2	0.4238	-4.9642	-2.5875	-46.0498	
620	120	2	0.4238	-6.2975	-1.6447	-46.0498	
621	121	1	-0.8476	-2.5698	-2.5058	-46.0306	
622	121	2	0.4238	-1.5698	-2.5058	-46.0306	
623	121	2	0.4238	-2.9032	-1.563	-46.0306	
624	122	1	-0.8476	0.83273	-2.5469	-46.0151	
625	122	2	0.4238	1.8327	-2.5469	-46.0151	
626	122	2	0.4238	0.49942	-1.6041	-46.0151	
627	123	1	-0.8476	4.2573	-2.5121	-45.9989	
628	123	2	0.4238	5.2573	-2.5121	-45.9989	
629	123	2	0.4238	3.924	-1.5693	-45.9989	
630	124	1	-0.8476	7.6579	-2.5568	-45.996	
631	124	2	0.4238	8.6579	-2.5568	-45.996	
632	124	2	0.4238	7.3246	-1.614	-45.996	
633	125	1	-0.8476	11.0946	-2.5911	-46.0353	
634	125	2	0.4238	12.0946	-2.5911	-46.0353	
635	125	2	0.4238	10.7612	-1.6483	-46.0353	
636	126	1	-0.8476	14.4613	-2.5914	-45.9836	
637	126	2	0.4238	15.4613	-2.5914	-45.9836	
638	126	2	0.4238	14.128	-1.6486	-45.9836	
639	127	1	-0.8476	17.8263	-2.5397	-45.97	
640	127	2	0.4238	18.8263	-2.5397	-45.97	
641	127	2	0.4238	17.493	-1.5969	-45.97	
642	128	1	-0.8476	21.2967	-2.5542	-46.0488	
643	128	2	0.4238	22.2967	-2.5542	-46.0488	
644	128	2	0.4238	20.9634	-1.6114	-46.0488	
645	129	1	-0.8476	24.6194	-2.5417	-46.0445	
646	129	2	0.4238	25.6194	-2.5417	-46.0445	
647	129	2	0.4238	24.2861	-1.5989	-46.0445	
648	130	1	-0.8476	-26.3106	0.89446	-45.9887	
649	130	2	0.4238	-25.3106	0.89446	-45.9887	
650	130	2	0.4238	-26.644	1.8373	-45.9887	
651	131	1	-0.8476	-22.9117	0.80152	-46.0123	
652	131	2	0.4238	-21.9117	0.80152	-46.0123	
653	131	2	0.4238	-23.245	1.7443	-46.0123	
654	132	1	-0.8476	-19.5838	0.83392	-46.001	
655	132	2	0.4238	-18.5838	0.83392	-46.001	
656	132	2	0.4238	-19.9171	1.7767	-46.001	
657	133	1	-0.8476	-16.1403	0.87076	-45.9647	
658	133	2	0.4238	-15.1403	0.87076	-45.9647	
659	133	2	0.4238	-16.4737	1.8136	-45.9647	
660	134	1	-0.8476	-12.7519	0.85001	-45.9654	
661	134	2	0.4238	-11.7519	0.85001	-45.9654	
662	134	2	0.4238	-13.0852	1.7928	-45.9654	
663	135	1	-0.8476	-9.3265	0.88663	-46.0136	
664	135	2	0.4238	-8.3265	0.88663	-46.0136	
665	135	2	0.4238	-9.6598	1.8294	-46.0136	
666	136	1	-0.8476	-5.9104	0.84593	-45.9691	
667	136	2	0.4238	-4.9104	0.84593	-45.9691	
668	136	2	0.4238	-6.2437	1.7887	-45.9691	
669	137	1	-0.8476	-2.5423	0.84391	-46.0488	
670	137	2	0.4238	-1.5423	0.84391	-46.0488	
671	137	2	0.4238	-2.8756	1.7867	-46.0488	
672	138	1	-0.8476	0.83333	0.89993	-46.0408	
673	138	2	0.4238	1.8333	0.89993	-46.0408	
674	138	2	0.4238	0.50002	1.8427	-46.0408	
675	139	1	-0.8476	4.2248	0.80961	-45.9528	
676	139	2	0.4238	5.2248	0.80961	-45.9528	
677	139	2	0.4238	3.8915	1.7524	-45.9528	
678	140	1	-0.8476	7.6454	0.88357	-45.9601	
679	140	2	0.4238	8.6454	0.88357	-45.9601	
680	140	2	0.4238	7.3121	1.8264	-45.9601	
681	141	1	-0.8476	11.0774	0.87732	-45.9556	
682	141	2	0.4238	12.0774	0.87732	-45.9556	
683	141	2	0.4238	10.7441	1.8201	-45.9556	
684	142	1	-0.8476	14.4146	0.88131	-45.9931	
685	142	2	0.4238	15.4146	0.88131	-45.9931	
686	142	2	0.4238	14.0813	1.8241	-45.9931	
687	143	1	-0.8476	17.8654	0.81426	-45.9647	
688	143	2	0.4238	18.8654	0.81426	-45.9647	
689	143	2	0.4238	17.5321	1.7571	-45.9647	
690	144	1	-0.8476	21.2719	0.88433	-46.0374	
691	144	2	0.4238	22.2719	0.88433	-46.0374	
692	144	2	0.4238	20.9386	1.8271	-46.0374	
693	145	1	-0.8476	24.6402	0.84218	-46.002	
694	145	2	0.4238	25.6402	0.84218	-46.002	
695	145	2	0.4238	24.3069	1.785	-46.002	
696	146	1	-0.8476	-26.3129	4.2436	-46.0034	
697	146	2	0.4238	-25.3129	4.2436	-46.0034	
698	146	2	0.4238	-26.6462	5.1864	-46.0034	
699	147	1	-0.8476	-22.9286	4.2885	-46.0376	
700	147	2	0.4238	-21.9286	4.2885	-46.0376	
701	147	2	0.4238	-23.2619	5.2313	-46.0376	
702	148	1	-0.8476	-19.565	4.2697	-45.9706	
703	148	2	0.4238	-18.565	4.2697	-45.9706	
704	148	2	0.4238	-19.8983	5.2125	-45.9706	
705	149	1	-0.8476	-16.1287	4.2644	-45.9854	
706	149	2	0.4238	-15.1287	4.2644	-45.9854	
707	149	2	0.4238	-16.462	5.2072	-45.9854	
708	150	1	-0.8476	-12.7719	4.2621	-45.9838	
709	150	2	0.4238	-11.7719	4.2621	-45.9838	
710	150	2	0.4238	-13.1052	5.2049	-45.9838	
711	151	1	-0.8476	-9.3788	4.2288	-45.9834	
712	151	2	0.4238	-8.3788	4.2288	-45.9834	
713	151	2	0.4238	-9.7121	5.1716	-45.9834	
714	152	1	-0.8476	-5.9127	4.2543	-46.0177	
715	152	2	0.4238	-4.9127	4.2543	-46.0177	
716	152	2	0.4238	-6.246	5.1971	-46.0177	
717	153	1	-0.8476	-2.5611	4.2799	-45.9627	
718	153	2	0.4238	-1.5611	4.2799	-45.9627	
719	153	2	0.4238	-2.8944	5.2227	-45.9627	
720	154	1	-0.8476	0.82421	4.2793	-46.0295	
721	154	2	0.4238	1.8242	4.2793	-46.0295	
722	154	2	0.4238	0.4909	5.2221	-46.0295	
723	155	1	-0.8476	4.2446	4.218	-45.9811	
724	155	2	0.4238	5.2446	4.218	-45.9811	
725	155	2	0.4238	3.9113	5.1608	-45.9811	
726	156	1	-0.8476	7.6694	4.2087	-45.9823	
727	156	2	0.4238	8.6694	4.2087	-45.9823	
728	156	2	0.4238	7.3361	5.1515	-45.9823	
729	157	1	-0.8476	11.0078	4.2943	-45.9835	
730	157	2	0.4238	12.0078	4.2943	-45.9835	
731	157	2	0.4238	10.6745	5.2371	-45.9835	
732	158	1	-0.8476	14.4028	4.2609	-45.9519	
733	158	2	0.4238	15.4028	4.2609	-45.9519	
734	158	2	0.4238	14.0695	5.2037	-45.9519	
735	159	1	-0.8476	17.8409	4.2525	-45.9842	
736	159	2	0.4238	18.8409	4.2525	-45.9842	
737	159	2	0.4238	17.5075	5.1953	-45.9842	
738	160	1	-0.8476	21.2748	4.2246	-45.9767	
739	160	2	0.4238	22.2748	4.2246	-45.9767	
740	160	2	0.4238	20.9414	5.1674	-45.9767	
741	161	1	-0.8476	24.6515	4.2138	-46.025	
742	161	2	0.4238	25.6515	4.2138	-46.025	
743	161	2	0.4238	24.3182	5.1566	-46.025	
744	162	1	-0.8476	-26.3497	7.6734	-46.0433	
745	162	2	0.4238	-25.3497	7.6734	-46.0433	
746	162	2	0.4238	-26.683	8.6162	-46.0433	
747	163	1	-0.8476	-22.9329	7.6461	-46.0243	
748	163	2	0.4238	-21.9329	7.6461	-46.0243	
749	163	2	0.4238	-23.2662	8.5889	-46.0243	
750	164	1	-0.8476	-19.5244	7.6016	-46.0463	
751	164	2	0.4238	-18.5244	7.6016	-46.0463	
752	164	2	0.4238	-19.8577	8.5444	-46.0463	
753	165	1	-0.8476	-16.1421	7.6093	-46.0312	
754	165	2	0.4238	-15.1421	7.6093	-46.0312	
755	165	2	0.4238	-16.4754	8.5521	-46.0312	
756	166	1	-0.8476	-12.7628	7.6813	-46.0037	
757	166	2	0.4238	-11.7628	7.6813	-46.0037	
758	166	2	0.4238	-13.0961	8.6241	-46.0037	
759	167	1	-0.8476	-9.3759	7.6768	-45.989	
760	167	2	0.4238	-8.3759	7.6768	-45.989	
761	167	2	0.4238	-9.7092	8.6196	-45.989	
762	168	1	-0.8476	-5.9238	7.6413	-46.0165	
763	168	2	0.4238	-4.9238	7.6413	-46.0165	
764	168	2	0.4238	-6.2571	8.5841	-46.0165	
765	169	1	-0.8476	-2.5358	7.6779	-46.0325	
766	169	2	0.4238	-1.5358	7.6779	-46.0325	