# System

13763 atoms
9330 bonds
5113 angles
1193 dihedrals
147 impropers

15 atom types
8 bond types
14 angle types
15 dihedral types
1 improper types
extra bond per atom 2
extra angle per atom 1
extra special per atom 2
-27.2         27.2 xlo xhi
-27.2         27.2 ylo yhi
-50  50 zlo zhi

Atoms

1	1	3	-0.115	0	-9.1962	-11.802	
2	1	3	-0.115	0	-9.9036	-10.5767	
3	1	3	0	0	-9.1962	-9.3515	
4	1	3	-0.115	0	-9.9036	-8.1262	
5	1	3	0	0	-9.1962	-6.901	
6	1	3	-0.115	0	-9.9036	-5.6757	
7	1	3	0	0	-9.1962	-4.4505	
8	1	3	-0.115	0	-9.9036	-3.2252	
9	1	3	0	0	-9.1962	-2	
10	1	13	0.15	0	-9.9036	-0.77472	
11	1	3	0	0	-9.1962	0.45048	
12	1	3	-0.115	0	-9.9036	1.6758	
13	1	3	0	0	-9.1962	2.901	
14	1	13	0.15	0	-9.9036	4.1263	
15	1	3	0	0	-9.1962	5.3515	
16	1	3	-0.115	0	-9.9036	6.5768	
17	1	3	-0.115	0	-9.1962	7.802	
18	1	13	0.15	0	-7.7814	-11.802	
19	1	3	0	0	-7.074	-10.5767	
20	1	3	0	0	-7.7814	-9.3515	
21	1	3	0	0	-7.074	-8.1262	
22	1	3	0	0	-7.7814	-6.901	
23	1	3	0	0	-7.074	-5.6757	
24	1	3	0	0	-7.7814	-4.4505	
25	1	3	0	0	-7.074	-3.2252	
26	1	5	0.265	0	-7.7814	-2	
27	1	5	0.265	0	-7.074	-0.77472	
28	1	3	0	0	-7.7814	0.45048	
29	1	3	0	0	-7.074	1.6758	
30	1	3	0	0	-7.7814	2.901	
31	1	3	0	0	-7.074	4.1263	
32	1	3	0	0	-7.7814	5.3515	
33	1	3	0	0	-7.074	6.5768	
34	1	3	-0.115	0	-7.7814	7.802	
35	1	13	0.15	0	-4.9518	-11.802	
36	1	5	0.265	0	-5.6592	-10.5767	
37	1	5	0.265	0	-4.9518	-9.3515	
38	1	5	0.265	0	-5.6592	-8.1262	
39	1	5	0.265	0	-4.9518	-6.901	
40	1	3	0	0	-5.6592	-5.6757	
41	1	5	0.265	0	-4.9518	-4.4505	
42	1	3	0	0	-5.6592	-3.2252	
43	1	5	0.265	0	-4.9518	-2	
44	1	5	0.265	0	-5.6592	-0.77472	
45	1	3	0	0	-4.9518	0.45048	
46	1	3	0	0	-5.6592	1.6758	
47	1	3	0	0	-4.9518	2.901	
48	1	3	0	0	-5.6592	4.1263	
49	1	3	0	0	-4.9518	5.3515	
50	1	3	0	0	-5.6592	6.5768	
51	1	13	0.15	0	-4.9518	7.802	
52	1	3	-0.115	0	-3.537	-11.802	
53	1	3	0	0	-2.8296	-10.5767	
54	1	3	0	0	-3.537	-9.3515	
55	1	3	0	0	-2.8296	-8.1262	
56	1	5	0.265	0	-3.537	-6.901	
57	1	5	0.265	0	-2.8296	-5.6757	
58	1	5	0.265	0	-3.537	-4.4505	
59	1	5	0.265	0	-2.8296	-3.2252	
60	1	3	0	0	-3.537	-2	
61	1	3	0	0	-2.8296	-0.77472	
62	1	3	0	0	-3.537	0.45048	
63	1	3	0	0	-2.8296	1.6758	
64	1	3	0	0	-3.537	2.901	
65	1	3	0	0	-2.8296	4.1263	
66	1	3	0	0	-3.537	5.3515	
67	1	3	0	0	-2.8296	6.5768	
68	1	3	-0.115	0	-3.537	7.802	
69	1	3	-0.115	0	-0.7074	-11.802	
70	1	3	0	0	-1.4148	-10.5767	
71	1	3	0	0	-0.7074	-9.3515	
72	1	5	0.265	0	-1.4148	-8.1262	
73	1	5	0.265	0	-0.7074	-6.901	
74	1	3	0	0	-1.4148	-5.6757	
75	1	5	0.265	0	-0.7074	-4.4505	
76	1	3	0	0	-1.4148	-3.2252	
77	1	3	0	0	-0.7074	-2	
78	1	3	0	0	-1.4148	-0.77472	
79	1	3	0	0	-0.7074	0.45048	
80	1	3	0	0	-1.4148	1.6758	
81	1	3	0	0	-0.7074	2.901	
82	1	3	0	0	-1.4148	4.1263	
83	1	3	0	0	-0.7074	5.3515	
84	1	3	0	0	-1.4148	6.5768	
85	1	13	0.15	0	-0.7074	7.802	
86	1	3	-0.115	0	0.7074	-11.802	
87	1	3	0	0	1.4148	-10.5767	
88	1	5	0.265	0	0.7074	-9.3515	
89	1	5	0.265	0	1.4148	-8.1262	
90	1	3	0	0	0.7074	-6.901	
91	1	3	0	0	1.4148	-5.6757	
92	1	5	0.265	0	0.7074	-4.4505	
93	1	3	0	0	1.4148	-3.2252	
94	1	3	0	0	0.7074	-2	
95	1	3	0	0	1.4148	-0.77472	
96	1	3	0	0	0.7074	0.45048	
97	1	3	0	0	1.4148	1.6758	
98	1	3	0	0	0.7074	2.901	
99	1	3	0	0	1.4148	4.1263	
100	1	3	0	0	0.7074	5.3515	
101	1	3	0	0	1.4148	6.5768	
102	1	3	-0.115	0	0.7074	7.802	
103	1	13	0.15	0	3.537	-11.802	
104	1	3	0	0	2.8296	-10.5767	
105	1	3	0	0	3.537	-9.3515	
106	1	3	0	0	2.8296	-8.1262	
107	1	5	0.265	0	3.537	-6.901	
108	1	5	0.265	0	2.8296	-5.6757	
109	1	3	0	0	3.537	-4.4505	
110	1	3	0	0	2.8296	-3.2252	
111	1	3	0	0	3.537	-2	
112	1	3	0	0	2.8296	-0.77472	
113	1	3	0	0	3.537	0.45048	
114	1	3	0	0	2.8296	1.6758	
115	1	3	0	0	3.537	2.901	
116	1	3	0	0	2.8296	4.1263	
117	1	3	0	0	3.537	5.3515	
118	1	3	0	0	2.8296	6.5768	
119	1	3	-0.115	0	3.537	7.802	
120	1	13	0.15	0	4.9518	-11.802	
121	1	3	0	0	5.6592	-10.5767	
122	1	3	0	0	4.9518	-9.3515	
123	1	3	0	0	5.6592	-8.1262	
124	1	3	0	0	4.9518	-6.901	
125	1	5	0.265	0	5.6592	-5.6757	
126	1	5	0.265	0	4.9518	-4.4505	
127	1	3	0	0	5.6592	-3.2252	
128	1	3	0	0	4.9518	-2	
129	1	3	0	0	5.6592	-0.77472	
130	1	3	0	0	4.9518	0.45048	
131	1	3	0	0	5.6592	1.6758	
132	1	3	0	0	4.9518	2.901	
133	1	3	0	0	5.6592	4.1263	
134	1	3	0	0	4.9518	5.3515	
135	1	3	0	0	5.6592	6.5768	
136	1	3	-0.115	0	4.9518	7.802	
137	1	3	-0.115	0	7.7814	-11.802	
138	1	3	0	0	7.074	-10.5767	
139	1	3	0	0	7.7814	-9.3515	
140	1	3	0	0	7.074	-8.1262	
141	1	3	0	0	7.7814	-6.901	
142	1	3	0	0	7.074	-5.6757	
143	1	3	0	0	7.7814	-4.4505	
144	1	3	0	0	7.074	-3.2252	
145	1	3	0	0	7.7814	-2	
146	1	3	0	0	7.074	-0.77472	
147	1	3	0	0	7.7814	0.45048	
148	1	3	0	0	7.074	1.6758	
149	1	3	0	0	7.7814	2.901	
150	1	3	0	0	7.074	4.1263	
151	1	3	0	0	7.7814	5.3515	
152	1	3	0	0	7.074	6.5768	
153	1	3	-0.115	0	7.7814	7.802	
154	1	3	-0.115	0	9.1962	-11.802	
155	1	3	-0.115	0	9.9036	-10.5767	
156	1	3	0	0	9.1962	-9.3515	
157	1	3	-0.115	0	9.9036	-8.1262	
158	1	3	0	0	9.1962	-6.901	
159	1	3	-0.115	0	9.9036	-5.6757	
160	1	3	0	0	9.1962	-4.4505	
161	1	3	-0.115	0	9.9036	-3.2252	
162	1	3	0	0	9.1962	-2	
163	1	3	-0.115	0	9.9036	-0.77472	
164	1	3	0	0	9.1962	0.45048	
165	1	13	0.15	0	9.9036	1.6758	
166	1	3	0	0	9.1962	2.901	
167	1	13	0.15	0	9.9036	4.1263	
168	1	3	0	0	9.1962	5.3515	
169	1	3	-0.115	0	9.9036	6.5768	
170	1	13	0.15	0	9.1962	7.802	
171	1	4	0.115	0	-10.9806	-10.5767	
172	1	4	0.115	0	-10.9806	-8.1262	
173	1	4	0.115	0	-10.9806	-5.6757	
174	1	4	0.115	0	-10.9806	-3.2252	
175	1	9	-0.585	0	-11.3036	-0.77472	
176	1	4	0.115	0	-10.9806	1.6758	
177	1	9	-0.585	0	-11.3036	4.1263	
178	1	4	0.115	0	-10.9806	6.5768	
179	1	4	0.115	0	10.9806	-10.5767	
180	1	4	0.115	0	10.9806	-8.1262	
181	1	4	0.115	0	10.9806	-5.6757	
182	1	4	0.115	0	10.9806	-3.2252	
183	1	4	0.115	0	10.9806	-0.77472	
184	1	9	-0.585	0	11.3036	1.6758	
185	1	9	-0.585	0	11.3036	4.1263	
186	1	4	0.115	0	10.9806	6.5768	
187	1	4	0.115	0	-9.7347	-12.7347	
188	1	9	-0.585	0	-7.0814	-13.0144	
189	1	4	0.115	0	-9.7347	8.7348	
190	1	4	0.115	0	-7.2429	8.7348	
191	1	9	-0.585	0	-5.6518	-13.0144	
192	1	4	0.115	0	-2.9985	-12.7347	
193	1	9	-0.585	0	-5.6518	9.0145	
194	1	4	0.115	0	-2.9985	8.7348	
195	1	4	0.115	0	-1.2459	-12.7347	
196	1	4	0.115	0	1.2459	-12.7347	
197	1	9	-0.585	0	-1.4074	9.0145	
198	1	4	0.115	0	1.2459	8.7348	
199	1	9	-0.585	0	2.837	-13.0144	
200	1	9	-0.585	0	5.6518	-13.0144	
201	1	4	0.115	0	2.9985	8.7348	
202	1	4	0.115	0	5.4903	8.7348	
203	1	4	0.115	0	7.2429	-12.7347	
204	1	4	0.115	0	9.7347	-12.7347	
205	1	4	0.115	0	7.2429	8.7348	
206	1	9	-0.585	0	9.8962	9.0145	
207	1	7	0.435	-0.7	-12.0036	-0.77472	
208	1	7	0.435	-0.7	-12.0036	4.1263	
209	1	7	0.435	-0.7	12.0036	1.6758	
210	1	7	0.435	0.7	12.0036	4.1263	
211	1	7	0.435	-0.7	-6.7314	-13.6207	
212	1	7	0.435	-0.7	-6.0018	-13.6207	
213	1	7	0.435	-0.7	-6.0018	9.6207	
214	1	7	0.435	-0.7	-1.7574	9.6207	
215	1	7	0.435	0.7	2.487	-13.6207	
216	1	7	0.435	0.7	6.0018	-13.6207	
217	1	7	0.435	0.7	10.2462	9.6207	
218	1	6	-0.683	1.4	-4.9518	-9.3515	
219	1	7	0.418	2.4	-4.9518	-9.3515	
220	1	6	-0.683	-1.4	-5.6592	-10.5767	
221	1	7	0.418	-2.4	-5.6592	-10.5767	
222	1	6	-0.683	1.4	-5.6592	-8.1262	
223	1	7	0.418	2.4	-5.6592	-8.1262	
224	1	6	-0.683	-1.4	-1.4148	-8.1262	
225	1	7	0.418	-2.4	-1.4148	-8.1262	
226	1	6	-0.683	-1.4	-4.9518	-6.901	
227	1	7	0.418	-2.4	-4.9518	-6.901	
228	1	6	-0.683	1.4	-2.8296	-5.6757	
229	1	7	0.418	2.4	-2.8296	-5.6757	
230	1	6	-0.683	1.4	0.7074	-9.3515	
231	1	7	0.418	2.4	0.7074	-9.3515	
232	1	6	-0.683	-1.4	-0.7074	-6.901	
233	1	7	0.418	-2.4	-0.7074	-6.901	
234	1	6	-0.683	1.4	0.7074	-4.4505	
235	1	7	0.418	2.4	0.7074	-4.4505	
236	1	6	-0.683	-1.4	1.4148	-8.1262	
237	1	7	0.418	-2.4	1.4148	-8.1262	
238	1	6	-0.683	1.4	-0.7074	-4.4505	
239	1	7	0.418	2.4	-0.7074	-4.4505	
240	1	6	-0.683	-1.4	-3.537	-4.4505	
241	1	7	0.418	-2.4	-3.537	-4.4505	
242	1	6	-0.683	1.4	-4.9518	-4.4505	
243	1	7	0.418	2.4	-4.9518	-4.4505	
244	1	6	-0.683	-1.4	-4.9518	-2	
245	1	7	0.418	-2.4	-4.9518	-2	
246	1	6	-0.683	-1.4	-3.537	-6.901	
247	1	7	0.418	-2.4	-3.537	-6.901	
248	1	6	-0.683	-1.4	2.8296	-5.6757	
249	1	7	0.418	-2.4	2.8296	-5.6757	
250	1	6	-0.683	1.4	-7.7814	-2	
251	1	7	0.418	2.4	-7.7814	-2	
252	1	6	-0.683	1.4	3.537	-6.901	
253	1	7	0.418	2.4	3.537	-6.901	
254	1	6	-0.683	1.4	4.9518	-4.4505	
255	1	7	0.418	2.4	4.9518	-4.4505	
256	1	6	-0.683	-1.4	-7.074	-0.77472	
257	1	7	0.418	-2.4	-7.074	-0.77472	
258	1	6	-0.683	1.4	5.6592	-5.6757	
259	1	7	0.418	2.4	5.6592	-5.6757	
260	1	6	-0.683	1.4	-5.6592	-0.77472	
261	1	7	0.418	2.4	-5.6592	-0.77472	
262	1	6	-0.683	-1.4	-2.8296	-3.2252	
263	1	7	0.418	-2.4	-2.8296	-3.2252	
264	2	1	-0.8476	-26.3501	-26.3486	-45.9606	
265	2	2	0.4238	-25.3501	-26.3486	-45.9606	
266	2	2	0.4238	-26.6834	-25.4058	-45.9606	
267	3	1	-0.8476	-22.9469	-26.3585	-46.044	
268	3	2	0.4238	-21.9469	-26.3585	-46.044	
269	3	2	0.4238	-23.2802	-25.4157	-46.044	
270	4	1	-0.8476	-19.561	-26.3858	-46.0478	
271	4	2	0.4238	-18.561	-26.3858	-46.0478	
272	4	2	0.4238	-19.8943	-25.443	-46.0478	
273	5	1	-0.8476	-16.1552	-26.3106	-46.049	
274	5	2	0.4238	-15.1552	-26.3106	-46.049	
275	5	2	0.4238	-16.4885	-25.3678	-46.049	
276	6	1	-0.8476	-12.7742	-26.3658	-46.0077	
277	6	2	0.4238	-11.7742	-26.3658	-46.0077	
278	6	2	0.4238	-13.1075	-25.423	-46.0077	
279	7	1	-0.8476	-9.3609	-26.3215	-45.9883	
280	7	2	0.4238	-8.3609	-26.3215	-45.9883	
281	7	2	0.4238	-9.6942	-25.3787	-45.9883	
282	8	1	-0.8476	-5.9352	-26.3598	-46.0079	
283	8	2	0.4238	-4.9352	-26.3598	-46.0079	
284	8	2	0.4238	-6.2685	-25.417	-46.0079	
285	9	1	-0.8476	-2.5384	-26.3292	-46.0426	
286	9	2	0.4238	-1.5384	-26.3292	-46.0426	
287	9	2	0.4238	-2.8717	-25.3864	-46.0426	
288	10	1	-0.8476	0.88723	-26.3798	-45.9795	
289	10	2	0.4238	1.8872	-26.3798	-45.9795	
290	10	2	0.4238	0.55392	-25.437	-45.9795	
291	11	1	-0.8476	4.208	-26.3515	-46.0349	
292	11	2	0.4238	5.208	-26.3515	-46.0349	
293	11	2	0.4238	3.8747	-25.4087	-46.0349	
294	12	1	-0.8476	7.6446	-26.3157	-46.0358	
295	12	2	0.4238	8.6446	-26.3157	-46.0358	
296	12	2	0.4238	7.3113	-25.3729	-46.0358	
297	13	1	-0.8476	11.0506	-26.3365	-45.9769	
298	13	2	0.4238	12.0506	-26.3365	-45.9769	
299	13	2	0.4238	10.7173	-25.3937	-45.9769	
300	14	1	-0.8476	14.4816	-26.3415	-45.9652	
301	14	2	0.4238	15.4816	-26.3415	-45.9652	
302	14	2	0.4238	14.1483	-25.3987	-45.9652	
303	15	1	-0.8476	17.8068	-26.3265	-46.0286	
304	15	2	0.4238	18.8068	-26.3265	-46.0286	
305	15	2	0.4238	17.4735	-25.3837	-46.0286	
306	16	1	-0.8476	21.2131	-26.35	-45.9733	
307	16	2	0.4238	22.2131	-26.35	-45.9733	
308	16	2	0.4238	20.8797	-25.4072	-45.9733	
309	17	1	-0.8476	24.6416	-26.3199	-45.9878	
310	17	2	0.4238	25.6416	-26.3199	-45.9878	
311	17	2	0.4238	24.3083	-25.3771	-45.9878	
312	18	1	-0.8476	-26.3127	-22.9827	-46.0054	
313	18	2	0.4238	-25.3127	-22.9827	-46.0054	
314	18	2	0.4238	-26.646	-22.0399	-46.0054	
315	19	1	-0.8476	-22.9716	-22.9704	-46.0179	
316	19	2	0.4238	-21.9716	-22.9704	-46.0179	
317	19	2	0.4238	-23.3049	-22.0276	-46.0179	
318	20	1	-0.8476	-19.5788	-22.9885	-45.9954	
319	20	2	0.4238	-18.5788	-22.9885	-45.9954	
320	20	2	0.4238	-19.9121	-22.0457	-45.9954	
321	21	1	-0.8476	-16.1555	-22.9759	-46.0374	
322	21	2	0.4238	-15.1555	-22.9759	-46.0374	
323	21	2	0.4238	-16.4888	-22.0331	-46.0374	
324	22	1	-0.8476	-12.7646	-22.9393	-46.0405	
325	22	2	0.4238	-11.7646	-22.9393	-46.0405	
326	22	2	0.4238	-13.0979	-21.9965	-46.0405	
327	23	1	-0.8476	-9.3615	-22.9343	-46.0329	
328	23	2	0.4238	-8.3615	-22.9343	-46.0329	
329	23	2	0.4238	-9.6948	-21.9915	-46.0329	
330	24	1	-0.8476	-5.9224	-22.9498	-46.027	
331	24	2	0.4238	-4.9224	-22.9498	-46.027	
332	24	2	0.4238	-6.2557	-22.007	-46.027	
333	25	1	-0.8476	-2.5253	-22.9053	-45.9642	
334	25	2	0.4238	-1.5253	-22.9053	-45.9642	
335	25	2	0.4238	-2.8586	-21.9625	-45.9642	
336	26	1	-0.8476	0.87752	-22.9688	-46.0056	
337	26	2	0.4238	1.8775	-22.9688	-46.0056	
338	26	2	0.4238	0.54421	-22.026	-46.0056	
339	27	1	-0.8476	4.2386	-22.9186	-46.002	
340	27	2	0.4238	5.2386	-22.9186	-46.002	
341	27	2	0.4238	3.9053	-21.9758	-46.002	
342	28	1	-0.8476	7.6781	-22.9918	-46.0276	
343	28	2	0.4238	8.6781	-22.9918	-46.0276	
344	28	2	0.4238	7.3448	-22.049	-46.0276	
345	29	1	-0.8476	11.0735	-22.9094	-46.0293	
346	29	2	0.4238	12.0735	-22.9094	-46.0293	
347	29	2	0.4238	10.7402	-21.9666	-46.0293	
348	30	1	-0.8476	14.4679	-22.9776	-45.954	
349	30	2	0.4238	15.4679	-22.9776	-45.954	
350	30	2	0.4238	14.1346	-22.0348	-45.954	
351	31	1	-0.8476	17.8521	-22.9806	-46.0054	
352	31	2	0.4238	18.8521	-22.9806	-46.0054	
353	31	2	0.4238	17.5188	-22.0378	-46.0054	
354	32	1	-0.8476	21.2554	-22.9857	-46.0248	
355	32	2	0.4238	22.2554	-22.9857	-46.0248	
356	32	2	0.4238	20.9221	-22.0429	-46.0248	
357	33	1	-0.8476	24.6166	-22.9417	-46.0078	
358	33	2	0.4238	25.6166	-22.9417	-46.0078	
359	33	2	0.4238	24.2833	-21.9989	-46.0078	
360	34	1	-0.8476	-26.3074	-19.5831	-46.0411	
361	34	2	0.4238	-25.3074	-19.5831	-46.0411	
362	34	2	0.4238	-26.6407	-18.6403	-46.0411	
363	35	1	-0.8476	-22.9808	-19.5396	-45.9837	
364	35	2	0.4238	-21.9808	-19.5396	-45.9837	
365	35	2	0.4238	-23.3141	-18.5968	-45.9837	
366	36	1	-0.8476	-19.5239	-19.5745	-45.9808	
367	36	2	0.4238	-18.5239	-19.5745	-45.9808	
368	36	2	0.4238	-19.8572	-18.6317	-45.9808	
369	37	1	-0.8476	-16.1825	-19.562	-46.0381	
370	37	2	0.4238	-15.1825	-19.562	-46.0381	
371	37	2	0.4238	-16.5158	-18.6192	-46.0381	
372	38	1	-0.8476	-12.7546	-19.5408	-45.952	
373	38	2	0.4238	-11.7546	-19.5408	-45.952	
374	38	2	0.4238	-13.0879	-18.598	-45.952	
375	39	1	-0.8476	-9.396	-19.5064	-46.012	
376	39	2	0.4238	-8.396	-19.5064	-46.012	
377	39	2	0.4238	-9.7293	-18.5636	-46.012	
378	40	1	-0.8476	-5.9624	-19.5595	-46.0173	
379	40	2	0.4238	-4.9624	-19.5595	-46.0173	
380	40	2	0.4238	-6.2957	-18.6167	-46.0173	
381	41	1	-0.8476	-2.55	-19.5014	-45.999	
382	41	2	0.4238	-1.55	-19.5014	-45.999	
383	41	2	0.4238	-2.8833	-18.5586	-45.999	
384	42	1	-0.8476	0.88247	-19.5366	-45.9898	
385	42	2	0.4238	1.8825	-19.5366	-45.9898	
386	42	2	0.4238	0.54916	-18.5938	-45.9898	
387	43	1	-0.8476	4.2877	-19.5648	-45.9544	
388	43	2	0.4238	5.2877	-19.5648	-45.9544	
389	43	2	0.4238	3.9544	-18.622	-45.9544	
390	44	1	-0.8476	7.6113	-19.5752	-45.9987	
391	44	2	0.4238	8.6113	-19.5752	-45.9987	
392	44	2	0.4238	7.278	-18.6324	-45.9987	
393	45	1	-0.8476	11.0578	-19.5972	-46.0449	
394	45	2	0.4238	12.0578	-19.5972	-46.0449	
395	45	2	0.4238	10.7245	-18.6544	-46.0449	
396	46	1	-0.8476	14.4228	-19.5103	-46.0477	
397	46	2	0.4238	15.4228	-19.5103	-46.0477	
398	46	2	0.4238	14.0895	-18.5675	-46.0477	
399	47	1	-0.8476	17.8147	-19.5554	-45.9704	
400	47	2	0.4238	18.8147	-19.5554	-45.9704	
401	47	2	0.4238	17.4813	-18.6126	-45.9704	
402	48	1	-0.8476	21.2094	-19.5521	-45.9926	
403	48	2	0.4238	22.2094	-19.5521	-45.9926	
404	48	2	0.4238	20.8761	-18.6093	-45.9926	
405	49	1	-0.8476	24.634	-19.5948	-45.9542	
406	49	2	0.4238	25.634	-19.5948	-45.9542	
407	49	2	0.4238	24.3006	-18.652	-45.9542	
408	50	1	-0.8476	-26.3085	-16.1709	-45.9848	
409	50	2	0.4238	-25.3085	-16.1709	-45.9848	
410	50	2	0.4238	-26.6418	-15.2281	-45.9848	
411	51	1	-0.8476	-22.9611	-16.128	-45.9617	
412	51	2	0.4238	-21.9611	-16.128	-45.9617	
413	51	2	0.4238	-23.2944	-15.1852	-45.9617	
414	52	1	-0.8476	-19.5857	-16.1003	-45.9757	
415	52	2	0.4238	-18.5857	-16.1003	-45.9757	
416	52	2	0.4238	-19.919	-15.1575	-45.9757	
417	53	1	-0.8476	-16.1798	-16.1629	-46.0069	
418	53	2	0.4238	-15.1798	-16.1629	-46.0069	
419	53	2	0.4238	-16.5131	-15.2201	-46.0069	
420	54	1	-0.8476	-12.745	-16.1748	-45.9613	
421	54	2	0.4238	-11.745	-16.1748	-45.9613	
422	54	2	0.4238	-13.0783	-15.232	-45.9613	
423	55	1	-0.8476	-9.3199	-16.1102	-46.0125	
424	55	2	0.4238	-8.3199	-16.1102	-46.0125	
425	55	2	0.4238	-9.6532	-15.1674	-46.0125	
426	56	1	-0.8476	-5.918	-16.1258	-46.0152	
427	56	2	0.4238	-4.918	-16.1258	-46.0152	
428	56	2	0.4238	-6.2513	-15.183	-46.0152	
429	57	1	-0.8476	-2.5075	-16.177	-45.9851	
430	57	2	0.4238	-1.5075	-16.177	-45.9851	
431	57	2	0.4238	-2.8408	-15.2342	-45.9851	
432	58	1	-0.8476	0.87137	-16.1073	-46.0493	
433	58	2	0.4238	1.8714	-16.1073	-46.0493	
434	58	2	0.4238	0.53806	-15.1645	-46.0493	
435	59	1	-0.8476	4.2173	-16.1207	-45.9982	
436	59	2	0.4238	5.2173	-16.1207	-45.9982	
437	59	2	0.4238	3.884	-15.1779	-45.9982	
438	60	1	-0.8476	7.6289	-16.1433	-46.0027	
439	60	2	0.4238	8.6289	-16.1433	-46.0027	
440	60	2	0.4238	7.2955	-15.2005	-46.0027	
441	61	1	-0.8476	11.0085	-16.1127	-46.0211	
442	61	2	0.4238	12.0085	-16.1127	-46.0211	
443	61	2	0.4238	10.6752	-15.1699	-46.0211	
444	62	1	-0.8476	14.4069	-16.1376	-46.0315	
445	62	2	0.4238	15.4069	-16.1376	-46.0315	
446	62	2	0.4238	14.0736	-15.1948	-46.0315	
447	63	1	-0.8476	17.8022	-16.1451	-46.0432	
448	63	2	0.4238	18.8022	-16.1451	-46.0432	
449	63	2	0.4238	17.4688	-15.2023	-46.0432	
450	64	1	-0.8476	21.2445	-16.1204	-45.9516	
451	64	2	0.4238	22.2445	-16.1204	-45.9516	
452	64	2	0.4238	20.9112	-15.1776	-45.9516	
453	65	1	-0.8476	24.6015	-16.1915	-46.031	
454	65	2	0.4238	25.6015	-16.1915	-46.031	
455	65	2	0.4238	24.2682	-15.2487	-46.031	
456	66	1	-0.8476	-26.382	-12.7486	-46.0131	
457	66	2	0.4238	-25.382	-12.7486	-46.0131	
458	66	2	0.4238	-26.7154	-11.8058	-46.0131	
459	67	1	-0.8476	-22.9458	-12.7974	-46.014	
460	67	2	0.4238	-21.9458	-12.7974	-46.014	
461	67	2	0.4238	-23.2791	-11.8546	-46.014	
462	68	1	-0.8476	-19.5289	-12.753	-45.9716	
463	68	2	0.4238	-18.5289	-12.753	-45.9716	
464	68	2	0.4238	-19.8622	-11.8102	-45.9716	
465	69	1	-0.8476	-16.1583	-12.7271	-46.0388	
466	69	2	0.4238	-15.1583	-12.7271	-46.0388	
467	69	2	0.4238	-16.4916	-11.7843	-46.0388	
468	70	1	-0.8476	-12.7696	-12.7377	-46.0231	
469	70	2	0.4238	-11.7696	-12.7377	-46.0231	
470	70	2	0.4238	-13.1029	-11.7949	-46.0231	
471	71	1	-0.8476	-9.3441	-12.7276	-46.0373	
472	71	2	0.4238	-8.3441	-12.7276	-46.0373	
473	71	2	0.4238	-9.6775	-11.7848	-46.0373	
474	72	1	-0.8476	-5.9068	-12.7064	-46.0193	
475	72	2	0.4238	-4.9068	-12.7064	-46.0193	
476	72	2	0.4238	-6.2401	-11.7636	-46.0193	
477	73	1	-0.8476	-2.5905	-12.7652	-46.0284	
478	73	2	0.4238	-1.5905	-12.7652	-46.0284	
479	73	2	0.4238	-2.9238	-11.8224	-46.0284	
480	74	1	-0.8476	0.83251	-12.7323	-46.0188	
481	74	2	0.4238	1.8325	-12.7323	-46.0188	
482	74	2	0.4238	0.4992	-11.7895	-46.0188	
483	75	1	-0.8476	4.2605	-12.7861	-45.9804	
484	75	2	0.4238	5.2605	-12.7861	-45.9804	
485	75	2	0.4238	3.9272	-11.8433	-45.9804	
486	76	1	-0.8476	7.6614	-12.7602	-46.0312	
487	76	2	0.4238	8.6614	-12.7602	-46.0312	
488	76	2	0.4238	7.3281	-11.8174	-46.0312	
489	77	1	-0.8476	11.0093	-12.7689	-45.95	
490	77	2	0.4238	12.0093	-12.7689	-45.95	
491	77	2	0.4238	10.676	-11.8261	-45.95	
492	78	1	-0.8476	14.4156	-12.7327	-45.9508	
493	78	2	0.4238	15.4156	-12.7327	-45.9508	
494	78	2	0.4238	14.0823	-11.7899	-45.9508	
495	79	1	-0.8476	17.897	-12.7941	-45.9657	
496	79	2	0.4238	18.897	-12.7941	-45.9657	
497	79	2	0.4238	17.5636	-11.8513	-45.9657	
498	80	1	-0.8476	21.2621	-12.7698	-45.9859	
499	80	2	0.4238	22.2621	-12.7698	-45.9859	
500	80	2	0.4238	20.9288	-11.827	-45.9859	
501	81	1	-0.8476	24.6837	-12.7285	-46.0015	
502	81	2	0.4238	25.6837	-12.7285	-46.0015	
503	81	2	0.4238	24.3504	-11.7857	-46.0015	
504	82	1	-0.8476	-26.3972	-9.3356	-45.9892	
505	82	2	0.4238	-25.3972	-9.3356	-45.9892	
506	82	2	0.4238	-26.7305	-8.3928	-45.9892	
507	83	1	-0.8476	-22.9149	-9.3528	-45.9687	
508	83	2	0.4238	-21.9149	-9.3528	-45.9687	
509	83	2	0.4238	-23.2482	-8.41	-45.9687	
510	84	1	-0.8476	-19.585	-9.3822	-46.047	
511	84	2	0.4238	-18.585	-9.3822	-46.047	
512	84	2	0.4238	-19.9184	-8.4394	-46.047	
513	85	1	-0.8476	-16.1105	-9.3871	-45.9706	
514	85	2	0.4238	-15.1105	-9.3871	-45.9706	
515	85	2	0.4238	-16.4438	-8.4443	-45.9706	
516	86	1	-0.8476	-12.7635	-9.3241	-45.9608	
517	86	2	0.4238	-11.7635	-9.3241	-45.9608	
518	86	2	0.4238	-13.0968	-8.3813	-45.9608	
519	87	1	-0.8476	-9.3236	-9.3375	-45.9659	
520	87	2	0.4238	-8.3236	-9.3375	-45.9659	
521	87	2	0.4238	-9.6569	-8.3947	-45.9659	
522	88	1	-0.8476	-5.9686	-9.3538	-46.0251	
523	88	2	0.4238	-4.9686	-9.3538	-46.0251	
524	88	2	0.4238	-6.3019	-8.411	-46.0251	
525	89	1	-0.8476	-2.5899	-9.3316	-46.0143	
526	89	2	0.4238	-1.5899	-9.3316	-46.0143	
527	89	2	0.4238	-2.9232	-8.3888	-46.0143	
528	90	1	-0.8476	0.84958	-9.3684	-46.0022	
529	90	2	0.4238	1.8496	-9.3684	-46.0022	
530	90	2	0.4238	0.51627	-8.4256	-46.0022	
531	91	1	-0.8476	4.2103	-9.3992	-46.0422	
532	91	2	0.4238	5.2103	-9.3992	-46.0422	
533	91	2	0.4238	3.877	-8.4564	-46.0422	
534	92	1	-0.8476	7.6228	-9.3781	-46.0064	
535	92	2	0.4238	8.6228	-9.3781	-46.0064	
536	92	2	0.4238	7.2895	-8.4353	-46.0064	
537	93	1	-0.8476	11.0446	-9.3522	-45.9602	
538	93	2	0.4238	12.0446	-9.3522	-45.9602	
539	93	2	0.4238	10.7113	-8.4094	-45.9602	
540	94	1	-0.8476	14.4817	-9.3084	-46.0158	
541	94	2	0.4238	15.4817	-9.3084	-46.0158	
542	94	2	0.4238	14.1484	-8.3656	-46.0158	
543	95	1	-0.8476	17.8683	-9.361	-46.0422	
544	95	2	0.4238	18.8683	-9.361	-46.0422	
545	95	2	0.4238	17.535	-8.4182	-46.0422	
546	96	1	-0.8476	21.2941	-9.3948	-46.0005	
547	96	2	0.4238	22.2941	-9.3948	-46.0005	
548	96	2	0.4238	20.9607	-8.452	-46.0005	
549	97	1	-0.8476	24.6576	-9.3944	-45.9595	
550	97	2	0.4238	25.6576	-9.3944	-45.9595	
551	97	2	0.4238	24.3243	-8.4516	-45.9595	
552	98	1	-0.8476	-26.3567	-5.9565	-46.0454	
553	98	2	0.4238	-25.3567	-5.9565	-46.0454	
554	98	2	0.4238	-26.69	-5.0137	-46.0454	
555	99	1	-0.8476	-22.9435	-5.9003	-45.9716	
556	99	2	0.4238	-21.9435	-5.9003	-45.9716	
557	99	2	0.4238	-23.2768	-4.9575	-45.9716	
558	100	1	-0.8476	-19.5429	-5.9733	-45.9775	
559	100	2	0.4238	-18.5429	-5.9733	-45.9775	
560	100	2	0.4238	-19.8762	-5.0305	-45.9775	
561	101	1	-0.8476	-16.1964	-5.957	-45.955	
562	101	2	0.4238	-15.1964	-5.957	-45.955	
563	101	2	0.4238	-16.5297	-5.0142	-45.955	
564	102	1	-0.8476	-12.7462	-5.9538	-45.9936	
565	102	2	0.4238	-11.7462	-5.9538	-45.9936	
566	102	2	0.4238	-13.0795	-5.011	-45.9936	
567	103	1	-0.8476	-9.3271	-5.9459	-45.9564	
568	103	2	0.4238	-8.3271	-5.9459	-45.9564	
569	103	2	0.4238	-9.6604	-5.0031	-45.9564	
570	104	1	-0.8476	-5.9684	-5.9519	-45.9825	
571	104	2	0.4238	-4.9684	-5.9519	-45.9825	
572	104	2	0.4238	-6.3017	-5.0091	-45.9825	
573	105	1	-0.8476	-2.5359	-5.9824	-46.0066	
574	105	2	0.4238	-1.5359	-5.9824	-46.0066	
575	105	2	0.4238	-2.8692	-5.0396	-46.0066	
576	106	1	-0.8476	0.87716	-5.9054	-46.035	
577	106	2	0.4238	1.8772	-5.9054	-46.035	
578	106	2	0.4238	0.54385	-4.9626	-46.035	
579	107	1	-0.8476	4.2427	-5.9283	-46.0164	
580	107	2	0.4238	5.2427	-5.9283	-46.0164	
581	107	2	0.4238	3.9093	-4.9855	-46.0164	
582	108	1	-0.8476	7.6927	-5.9165	-46.0364	
583	108	2	0.4238	8.6927	-5.9165	-46.0364	
584	108	2	0.4238	7.3594	-4.9737	-46.0364	
585	109	1	-0.8476	11.0816	-5.9036	-45.9578	
586	109	2	0.4238	12.0816	-5.9036	-45.9578	
587	109	2	0.4238	10.7483	-4.9608	-45.9578	
588	110	1	-0.8476	14.4616	-5.9857	-45.9527	
589	110	2	0.4238	15.4616	-5.9857	-45.9527	
590	110	2	0.4238	14.1283	-5.0429	-45.9527	
591	111	1	-0.8476	17.8801	-5.9124	-46.0132	
592	111	2	0.4238	18.8801	-5.9124	-46.0132	
593	111	2	0.4238	17.5468	-4.9696	-46.0132	
594	112	1	-0.8476	21.2115	-5.9052	-46.0428	
595	112	2	0.4238	22.2115	-5.9052	-46.0428	
596	112	2	0.4238	20.8782	-4.9624	-46.0428	
597	113	1	-0.8476	24.6594	-5.9541	-46.0389	
598	113	2	0.4238	25.6594	-5.9541	-46.0389	
599	113	2	0.4238	24.3261	-5.0113	-46.0389	
600	114	1	-0.8476	-26.3847	-2.5488	-46.0137	
601	114	2	0.4238	-25.3847	-2.5488	-46.0137	
602	114	2	0.4238	-26.718	-1.606	-46.0137	
603	115	1	-0.8476	-22.9598	-2.5606	-45.9679	
604	115	2	0.4238	-21.9598	-2.5606	-45.9679	
605	115	2	0.4238	-23.2931	-1.6178	-45.9679	
606	116	1	-0.8476	-19.5474	-2.5511	-45.9953	
607	116	2	0.4238	-18.5474	-2.5511	-45.9953	
608	116	2	0.4238	-19.8807	-1.6083	-45.9953	
609	117	1	-0.8476	-16.1481	-2.5055	-46.0111	
610	117	2	0.4238	-15.1481	-2.5055	-46.0111	
611	117	2	0.4238	-16.4814	-1.5627	-46.0111	
612	118	1	-0.8476	-12.7095	-2.5656	-46.0438	
613	118	2	0.4238	-11.7095	-2.5656	-46.0438	
614	118	2	0.4238	-13.0429	-1.6228	-46.0438	
615	119	1	-0.8476	-9.3536	-2.5107	-45.9868	
616	119	2	0.4238	-8.3536	-2.5107	-45.9868	
617	119	2	0.4238	-9.6869	-1.5679	-45.9868	
618	120	1	-0.8476	-5.9908	-2.5727	-46.0364	
619	120	2	0.4238	-4.9908	-2.5727	-46.0364	
620	120	2	0.4238	-6.3242	-1.6299	-46.0364	
621	121	1	-0.8476	-2.5996	-2.5099	-46.0484	
622	121	2	0.4238	-1.5996	-2.5099	-46.0484	
623	121	2	0.4238	-2.9329	-1.5671	-46.0484	
624	122	1	-0.8476	0.8795	-2.5238	-45.9646	
625	122	2	0.4238	1.8795	-2.5238	-45.9646	
626	122	2	0.4238	0.54619	-1.581	-45.9646	
627	123	1	-0.8476	4.2842	-2.5842	-46.0442	
628	123	2	0.4238	5.2842	-2.5842	-46.0442	
629	123	2	0.4238	3.9509	-1.6414	-46.0442	
630	124	1	-0.8476	7.6142	-2.5052	-46.0172	
631	124	2	0.4238	8.6142	-2.5052	-46.0172	
632	124	2	0.4238	7.2809	-1.5624	-46.0172	
633	125	1	-0.8476	11.0517	-2.5232	-45.9546	
634	125	2	0.4238	12.0517	-2.5232	-45.9546	
635	125	2	0.4238	10.7184	-1.5804	-45.9546	
636	126	1	-0.8476	14.4534	-2.5903	-45.9989	
637	126	2	0.4238	15.4534	-2.5903	-45.9989	
638	126	2	0.4238	14.1201	-1.6475	-45.9989	
639	127	1	-0.8476	17.8669	-2.5958	-46.0333	
640	127	2	0.4238	18.8669	-2.5958	-46.0333	
641	127	2	0.4238	17.5336	-1.653	-46.0333	
642	128	1	-0.8476	21.2488	-2.5458	-46.0045	
643	128	2	0.4238	22.2488	-2.5458	-46.0045	
644	128	2	0.4238	20.9155	-1.603	-46.0045	
645	129	1	-0.8476	24.626	-2.5052	-46.0365	
646	129	2	0.4238	25.626	-2.5052	-46.0365	
647	129	2	0.4238	24.2927	-1.5624	-46.0365	
648	130	1	-0.8476	-26.3472	0.82494	-46.0213	
649	130	2	0.4238	-25.3472	0.82494	-46.0213	
650	130	2	0.4238	-26.6806	1.7677	-46.0213	
651	131	1	-0.8476	-22.9333	0.88677	-45.9957	
652	131	2	0.4238	-21.9333	0.88677	-45.9957	
653	131	2	0.4238	-23.2666	1.8296	-45.9957	
654	132	1	-0.8476	-19.5404	0.85189	-45.9807	
655	132	2	0.4238	-18.5404	0.85189	-45.9807	
656	132	2	0.4238	-19.8737	1.7947	-45.9807	
657	133	1	-0.8476	-16.1291	0.89396	-46.0183	
658	133	2	0.4238	-15.1291	0.89396	-46.0183	
659	133	2	0.4238	-16.4624	1.8368	-46.0183	
660	134	1	-0.8476	-12.7659	0.8456	-45.9909	
661	134	2	0.4238	-11.7659	0.8456	-45.9909	
662	134	2	0.4238	-13.0992	1.7884	-45.9909	
663	135	1	-0.8476	-9.3827	0.81163	-46.0396	
664	135	2	0.4238	-8.3827	0.81163	-46.0396	
665	135	2	0.4238	-9.716	1.7544	-46.0396	
666	136	1	-0.8476	-5.971	0.84423	-46.0322	
667	136	2	0.4238	-4.971	0.84423	-46.0322	
668	136	2	0.4238	-6.3044	1.787	-46.0322	
669	137	1	-0.8476	-2.5278	0.81474	-45.9685	
670	137	2	0.4238	-1.5278	0.81474	-45.9685	
671	137	2	0.4238	-2.8611	1.7575	-45.9685	
672	138	1	-0.8476	0.80621	0.86607	-45.9632	
673	138	2	0.4238	1.8062	0.86607	-45.9632	
674	138	2	0.4238	0.4729	1.8089	-45.9632	
675	139	1	-0.8476	4.2587	0.82839	-46.0136	
676	139	2	0.4238	5.2587	0.82839	-46.0136	
677	139	2	0.4238	3.9253	1.7712	-46.0136	
678	140	1	-0.8476	7.6972	0.8023	-45.9871	
679	140	2	0.4238	8.6972	0.8023	-45.9871	
680	140	2	0.4238	7.3639	1.7451	-45.9871	
681	141	1	-0.8476	11.0696	0.84493	-46.0275	
682	141	2	0.4238	12.0696	0.84493	-46.0275	
683	141	2	0.4238	10.7363	1.7877	-46.0275	
684	142	1	-0.8476	14.447	0.80597	-45.9963	
685	142	2	0.4238	15.447	0.80597	-45.9963	
686	142	2	0.4238	14.1136	1.7488	-45.9963	
687	143	1	-0.8476	17.8948	0.82737	-46.0444	
688	143	2	0.4238	18.8948	0.82737	-46.0444	
689	143	2	0.4238	17.5615	1.7702	-46.0444	
690	144	1	-0.8476	21.2242	0.89369	-45.9545	
691	144	2	0.4238	22.2242	0.89369	-45.9545	
692	144	2	0.4238	20.8909	1.8365	-45.9545	
693	145	1	-0.8476	24.6066	0.85622	-46.0475	
694	145	2	0.4238	25.6066	0.85622	-46.0475	
695	145	2	0.4238	24.2733	1.799	-46.0475	
696	146	1	-0.8476	-26.3067	4.2281	-46.0246	
697	146	2	0.4238	-25.3067	4.2281	-46.0246	
698	146	2	0.4238	-26.64	5.1709	-46.0246	
699	147	1	-0.8476	-22.9348	4.229	-46.035	
700	147	2	0.4238	-21.9348	4.229	-46.035	
701	147	2	0.4238	-23.2681	5.1718	-46.035	
702	148	1	-0.8476	-19.5506	4.271	-46.0084	
703	148	2	0.4238	-18.5506	4.271	-46.0084	
704	148	2	0.4238	-19.8839	5.2138	-46.0084	
705	149	1	-0.8476	-16.1646	4.2252	-45.9757	
706	149	2	0.4238	-15.1646	4.2252	-45.9757	
707	149	2	0.4238	-16.4979	5.168	-45.9757	
708	150	1	-0.8476	-12.7104	4.2625	-45.9571	
709	150	2	0.4238	-11.7104	4.2625	-45.9571	
710	150	2	0.4238	-13.0437	5.2053	-45.9571	
711	151	1	-0.8476	-9.351	4.2172	-45.9997	
712	151	2	0.4238	-8.351	4.2172	-45.9997	
713	151	2	0.4238	-9.6843	5.16	-45.9997	
714	152	1	-0.8476	-5.9622	4.2446	-45.9849	
715	152	2	0.4238	-4.9622	4.2446	-45.9849	
716	152	2	0.4238	-6.2955	5.1874	-45.9849	
717	153	1	-0.8476	-2.5917	4.2501	-45.9778	
718	153	2	0.4238	-1.5917	4.2501	-45.9778	
719	153	2	0.4238	-2.925	5.1929	-45.9778	
720	154	1	-0.8476	0.85174	4.2872	-45.9531	
721	154	2	0.4238	1.8517	4.2872	-45.9531	
722	154	2	0.4238	0.51843	5.23	-45.9531	
723	155	1	-0.8476	4.2111	4.2901	-45.9628	
724	155	2	0.4238	5.2111	4.2901	-45.9628	
725	155	2	0.4238	3.8778	5.2329	-45.9628	
726	156	1	-0.8476	7.6912	4.2174	-46.0118	
727	156	2	0.4238	8.6912	4.2174	-46.0118	
728	156	2	0.4238	7.3579	5.1602	-46.0118	
729	157	1	-0.8476	11.014	4.2428	-45.9646	
730	157	2	0.4238	12.014	4.2428	-45.9646	
731	157	2	0.4238	10.6807	5.1856	-45.9646	
732	158	1	-0.8476	14.4482	4.2583	-46.0214	
733	158	2	0.4238	15.4482	4.2583	-46.0214	
734	158	2	0.4238	14.1149	5.2011	-46.0214	
735	159	1	-0.8476	17.8082	4.21	-46.045	
736	159	2	0.4238	18.8082	4.21	-46.045	
737	159	2	0.4238	17.4749	5.1528	-46.045	
738	160	1	-0.8476	21.2307	4.2465	-45.9602	
739	160	2	0.4238	22.2307	4.2465	-45.9602	
740	160	2	0.4238	20.8974	5.1893	-45.9602	
741	161	1	-0.8476	24.6759	4.2894	-46.0479	
742	161	2	0.4238	25.6759	4.2894	-46.0479	
743	161	2	0.4238	24.3426	5.2322	-46.0479	
744	162	1	-0.8476	-26.3098	7.6601	-46.0461	
745	162	2	0.4238	-25.3098	7.6601	-46.0461	
746	162	2	0.4238	-26.6431	8.6029	-46.0461	
747	163	1	-0.8476	-22.9759	7.6781	-46.0043	
748	163	2	0.4238	-21.9759	7.6781	-46.0043	
749	163	2	0.4238	-23.3092	8.6209	-46.0043	
750	164	1	-0.8476	-19.5213	7.6842	-46.0063	
751	164	2	0.4238	-18.5213	7.6842	-46.0063	
752	164	2	0.4238	-19.8546	8.627	-46.0063	
753	165	1	-0.8476	-16.1921	7.6994	-45.9982	
754	165	2	0.4238	-15.1921	7.6994	-45.9982	
755	165	2	0.4238	-16.5254	8.6422	-45.9982	
756	166	1	-0.8476	-12.7779	7.6569	-45.9854	
757	166	2	0.4238	-11.7779	7.6569	-45.9854	
758	166	2	0.4238	-13.1112	8.5997	-45.9854	
759	167	1	-0.8476	-9.3448	7.6996	-46.0034	
760	167	2	0.4238	-8.3448	7.6996	-46.0034	
761	167	2	0.4238	-9.6781	8.6424	-46.0034	
762	168	1	-0.8476	-5.917	7.6813	-46.0263	
763	168	2	0.4238	-4.917	7.6813	-46.0263	
764	168	2	0.4238	-6.2504	8.6241	-46.0263	
765	169	1	-0.8476	-2.5031	7.6505	-46.0406	
766	169	2	0.4238	-1.5031	7.6505	-46.0406	
767	169	2	0.4238	-2.8364	8.5933	-46.0406	
768	170	1	-0.8476	0.88368	7.6284	-46.0342	