# System

13763 atoms
9330 bonds
5113 angles
1193 dihedrals
147 impropers

15 atom types
8 bond types
14 angle types
15 dihedral types
1 improper types
extra bond per atom 2
extra angle per atom 1
extra special per atom 2
-27.2         27.2 xlo xhi
-27.2         27.2 ylo yhi
-50  50 zlo zhi

Atoms

1	1	3	-0.115	0	-9.1962	8.198	
2	1	3	-0.115	0	-9.9036	9.4233	
3	1	3	0	0	-9.1962	10.6485	
4	1	3	-0.115	0	-9.9036	11.8738	
5	1	3	0	0	-9.1962	13.099	
6	1	3	-0.115	0	-9.9036	14.3243	
7	1	3	0	0	-9.1962	15.5495	
8	1	3	-0.115	0	-9.9036	16.7748	
9	1	3	0	0	-9.1962	18	
10	1	13	0.15	0	-9.9036	19.2253	
11	1	3	0	0	-9.1962	20.4505	
12	1	3	-0.115	0	-9.9036	21.6758	
13	1	3	0	0	-9.1962	22.901	
14	1	13	0.15	0	-9.9036	24.1263	
15	1	3	0	0	-9.1962	25.3515	
16	1	3	-0.115	0	-9.9036	26.5768	
17	1	3	-0.115	0	-9.1962	27.802	
18	1	13	0.15	0	-7.7814	8.198	
19	1	3	0	0	-7.074	9.4233	
20	1	3	0	0	-7.7814	10.6485	
21	1	3	0	0	-7.074	11.8738	
22	1	3	0	0	-7.7814	13.099	
23	1	3	0	0	-7.074	14.3243	
24	1	3	0	0	-7.7814	15.5495	
25	1	3	0	0	-7.074	16.7748	
26	1	5	0.265	0	-7.7814	18	
27	1	5	0.265	0	-7.074	19.2253	
28	1	3	0	0	-7.7814	20.4505	
29	1	3	0	0	-7.074	21.6758	
30	1	3	0	0	-7.7814	22.901	
31	1	3	0	0	-7.074	24.1263	
32	1	3	0	0	-7.7814	25.3515	
33	1	3	0	0	-7.074	26.5768	
34	1	3	-0.115	0	-7.7814	27.802	
35	1	13	0.15	0	-4.9518	8.198	
36	1	5	0.265	0	-5.6592	9.4233	
37	1	5	0.265	0	-4.9518	10.6485	
38	1	5	0.265	0	-5.6592	11.8738	
39	1	5	0.265	0	-4.9518	13.099	
40	1	3	0	0	-5.6592	14.3243	
41	1	5	0.265	0	-4.9518	15.5495	
42	1	3	0	0	-5.6592	16.7748	
43	1	5	0.265	0	-4.9518	18	
44	1	5	0.265	0	-5.6592	19.2253	
45	1	3	0	0	-4.9518	20.4505	
46	1	3	0	0	-5.6592	21.6758	
47	1	3	0	0	-4.9518	22.901	
48	1	3	0	0	-5.6592	24.1263	
49	1	3	0	0	-4.9518	25.3515	
50	1	3	0	0	-5.6592	26.5768	
51	1	13	0.15	0	-4.9518	27.802	
52	1	3	-0.115	0	-3.537	8.198	
53	1	3	0	0	-2.8296	9.4233	
54	1	3	0	0	-3.537	10.6485	
55	1	3	0	0	-2.8296	11.8738	
56	1	5	0.265	0	-3.537	13.099	
57	1	5	0.265	0	-2.8296	14.3243	
58	1	5	0.265	0	-3.537	15.5495	
59	1	5	0.265	0	-2.8296	16.7748	
60	1	3	0	0	-3.537	18	
61	1	3	0	0	-2.8296	19.2253	
62	1	3	0	0	-3.537	20.4505	
63	1	3	0	0	-2.8296	21.6758	
64	1	3	0	0	-3.537	22.901	
65	1	3	0	0	-2.8296	24.1263	
66	1	3	0	0	-3.537	25.3515	
67	1	3	0	0	-2.8296	26.5768	
68	1	3	-0.115	0	-3.537	27.802	
69	1	3	-0.115	0	-0.7074	8.198	
70	1	3	0	0	-1.4148	9.4233	
71	1	3	0	0	-0.7074	10.6485	
72	1	5	0.265	0	-1.4148	11.8738	
73	1	5	0.265	0	-0.7074	13.099	
74	1	3	0	0	-1.4148	14.3243	
75	1	5	0.265	0	-0.7074	15.5495	
76	1	3	0	0	-1.4148	16.7748	
77	1	3	0	0	-0.7074	18	
78	1	3	0	0	-1.4148	19.2253	
79	1	3	0	0	-0.7074	20.4505	
80	1	3	0	0	-1.4148	21.6758	
81	1	3	0	0	-0.7074	22.901	
82	1	3	0	0	-1.4148	24.1263	
83	1	3	0	0	-0.7074	25.3515	
84	1	3	0	0	-1.4148	26.5768	
85	1	13	0.15	0	-0.7074	27.802	
86	1	3	-0.115	0	0.7074	8.198	
87	1	3	0	0	1.4148	9.4233	
88	1	5	0.265	0	0.7074	10.6485	
89	1	5	0.265	0	1.4148	11.8738	
90	1	3	0	0	0.7074	13.099	
91	1	3	0	0	1.4148	14.3243	
92	1	5	0.265	0	0.7074	15.5495	
93	1	3	0	0	1.4148	16.7748	
94	1	3	0	0	0.7074	18	
95	1	3	0	0	1.4148	19.2253	
96	1	3	0	0	0.7074	20.4505	
97	1	3	0	0	1.4148	21.6758	
98	1	3	0	0	0.7074	22.901	
99	1	3	0	0	1.4148	24.1263	
100	1	3	0	0	0.7074	25.3515	
101	1	3	0	0	1.4148	26.5768	
102	1	3	-0.115	0	0.7074	27.802	
103	1	13	0.15	0	3.537	8.198	
104	1	3	0	0	2.8296	9.4233	
105	1	3	0	0	3.537	10.6485	
106	1	3	0	0	2.8296	11.8738	
107	1	5	0.265	0	3.537	13.099	
108	1	5	0.265	0	2.8296	14.3243	
109	1	3	0	0	3.537	15.5495	
110	1	3	0	0	2.8296	16.7748	
111	1	3	0	0	3.537	18	
112	1	3	0	0	2.8296	19.2253	
113	1	3	0	0	3.537	20.4505	
114	1	3	0	0	2.8296	21.6758	
115	1	3	0	0	3.537	22.901	
116	1	3	0	0	2.8296	24.1263	
117	1	3	0	0	3.537	25.3515	
118	1	3	0	0	2.8296	26.5768	
119	1	3	-0.115	0	3.537	27.802	
120	1	13	0.15	0	4.9518	8.198	
121	1	3	0	0	5.6592	9.4233	
122	1	3	0	0	4.9518	10.6485	
123	1	3	0	0	5.6592	11.8738	
124	1	3	0	0	4.9518	13.099	
125	1	5	0.265	0	5.6592	14.3243	
126	1	5	0.265	0	4.9518	15.5495	
127	1	3	0	0	5.6592	16.7748	
128	1	3	0	0	4.9518	18	
129	1	3	0	0	5.6592	19.2253	
130	1	3	0	0	4.9518	20.4505	
131	1	3	0	0	5.6592	21.6758	
132	1	3	0	0	4.9518	22.901	
133	1	3	0	0	5.6592	24.1263	
134	1	3	0	0	4.9518	25.3515	
135	1	3	0	0	5.6592	26.5768	
136	1	3	-0.115	0	4.9518	27.802	
137	1	3	-0.115	0	7.7814	8.198	
138	1	3	0	0	7.074	9.4233	
139	1	3	0	0	7.7814	10.6485	
140	1	3	0	0	7.074	11.8738	
141	1	3	0	0	7.7814	13.099	
142	1	3	0	0	7.074	14.3243	
143	1	3	0	0	7.7814	15.5495	
144	1	3	0	0	7.074	16.7748	
145	1	3	0	0	7.7814	18	
146	1	3	0	0	7.074	19.2253	
147	1	3	0	0	7.7814	20.4505	
148	1	3	0	0	7.074	21.6758	
149	1	3	0	0	7.7814	22.901	
150	1	3	0	0	7.074	24.1263	
151	1	3	0	0	7.7814	25.3515	
152	1	3	0	0	7.074	26.5768	
153	1	3	-0.115	0	7.7814	27.802	
154	1	3	-0.115	0	9.1962	8.198	
155	1	3	-0.115	0	9.9036	9.4233	
156	1	3	0	0	9.1962	10.6485	
157	1	3	-0.115	0	9.9036	11.8738	
158	1	3	0	0	9.1962	13.099	
159	1	3	-0.115	0	9.9036	14.3243	
160	1	3	0	0	9.1962	15.5495	
161	1	3	-0.115	0	9.9036	16.7748	
162	1	3	0	0	9.1962	18	
163	1	3	-0.115	0	9.9036	19.2253	
164	1	3	0	0	9.1962	20.4505	
165	1	13	0.15	0	9.9036	21.6758	
166	1	3	0	0	9.1962	22.901	
167	1	13	0.15	0	9.9036	24.1263	
168	1	3	0	0	9.1962	25.3515	
169	1	3	-0.115	0	9.9036	26.5768	
170	1	13	0.15	0	9.1962	27.802	
171	1	4	0.115	0	-10.9806	9.4233	
172	1	4	0.115	0	-10.9806	11.8738	
173	1	4	0.115	0	-10.9806	14.3243	
174	1	4	0.115	0	-10.9806	16.7748	
175	1	9	-0.585	0	-11.3036	19.2253	
176	1	4	0.115	0	-10.9806	21.6758	
177	1	9	-0.585	0	-11.3036	24.1263	
178	1	4	0.115	0	-10.9806	26.5768	
179	1	4	0.115	0	10.9806	9.4233	
180	1	4	0.115	0	10.9806	11.8738	
181	1	4	0.115	0	10.9806	14.3243	
182	1	4	0.115	0	10.9806	16.7748	
183	1	4	0.115	0	10.9806	19.2253	
184	1	9	-0.585	0	11.3036	21.6758	
185	1	9	-0.585	0	11.3036	24.1263	
186	1	4	0.115	0	10.9806	26.5768	
187	1	4	0.115	0	-9.7347	7.2653	
188	1	9	-0.585	0	-7.0814	6.9856	
189	1	4	0.115	0	-9.7347	28.7348	
190	1	4	0.115	0	-7.2429	28.7348	
191	1	9	-0.585	0	-5.6518	6.9856	
192	1	4	0.115	0	-2.9985	7.2653	
193	1	9	-0.585	0	-5.6518	29.0145	
194	1	4	0.115	0	-2.9985	28.7348	
195	1	4	0.115	0	-1.2459	7.2653	
196	1	4	0.115	0	1.2459	7.2653	
197	1	9	-0.585	0	-1.4074	29.0145	
198	1	4	0.115	0	1.2459	28.7348	
199	1	9	-0.585	0	2.837	6.9856	
200	1	9	-0.585	0	5.6518	6.9856	
201	1	4	0.115	0	2.9985	28.7348	
202	1	4	0.115	0	5.4903	28.7348	
203	1	4	0.115	0	7.2429	7.2653	
204	1	4	0.115	0	9.7347	7.2653	
205	1	4	0.115	0	7.2429	28.7348	
206	1	9	-0.585	0	9.8962	29.0145	
207	1	7	0.435	-0.7	-12.0036	19.2253	
208	1	7	0.435	-0.7	-12.0036	24.1263	
209	1	7	0.435	-0.7	12.0036	21.6758	
210	1	7	0.435	0.7	12.0036	24.1263	
211	1	7	0.435	-0.7	-6.7314	6.3793	
212	1	7	0.435	-0.7	-6.0018	6.3793	
213	1	7	0.435	-0.7	-6.0018	29.6207	
214	1	7	0.435	-0.7	-1.7574	29.6207	
215	1	7	0.435	0.7	2.487	6.3793	
216	1	7	0.435	0.7	6.0018	6.3793	
217	1	7	0.435	0.7	10.2462	29.6207	
218	1	6	-0.683	1.4	-4.9518	10.6485	
219	1	7	0.418	2.4	-4.9518	10.6485	
220	1	6	-0.683	-1.4	-5.6592	9.4233	
221	1	7	0.418	-2.4	-5.6592	9.4233	
222	1	6	-0.683	1.4	-5.6592	11.8738	
223	1	7	0.418	2.4	-5.6592	11.8738	
224	1	6	-0.683	-1.4	-1.4148	11.8738	
225	1	7	0.418	-2.4	-1.4148	11.8738	
226	1	6	-0.683	-1.4	-4.9518	13.099	
227	1	7	0.418	-2.4	-4.9518	13.099	
228	1	6	-0.683	1.4	-2.8296	14.3243	
229	1	7	0.418	2.4	-2.8296	14.3243	
230	1	6	-0.683	1.4	0.7074	10.6485	
231	1	7	0.418	2.4	0.7074	10.6485	
232	1	6	-0.683	-1.4	-0.7074	13.099	
233	1	7	0.418	-2.4	-0.7074	13.099	
234	1	6	-0.683	1.4	0.7074	15.5495	
235	1	7	0.418	2.4	0.7074	15.5495	
236	1	6	-0.683	-1.4	1.4148	11.8738	
237	1	7	0.418	-2.4	1.4148	11.8738	
238	1	6	-0.683	1.4	-0.7074	15.5495	
239	1	7	0.418	2.4	-0.7074	15.5495	
240	1	6	-0.683	-1.4	-3.537	15.5495	
241	1	7	0.418	-2.4	-3.537	15.5495	
242	1	6	-0.683	1.4	-4.9518	15.5495	
243	1	7	0.418	2.4	-4.9518	15.5495	
244	1	6	-0.683	-1.4	-4.9518	18	
245	1	7	0.418	-2.4	-4.9518	18	
246	1	6	-0.683	-1.4	-3.537	13.099	
247	1	7	0.418	-2.4	-3.537	13.099	
248	1	6	-0.683	-1.4	2.8296	14.3243	
249	1	7	0.418	-2.4	2.8296	14.3243	
250	1	6	-0.683	1.4	-7.7814	18	
251	1	7	0.418	2.4	-7.7814	18	
252	1	6	-0.683	1.4	3.537	13.099	
253	1	7	0.418	2.4	3.537	13.099	
254	1	6	-0.683	1.4	4.9518	15.5495	
255	1	7	0.418	2.4	4.9518	15.5495	
256	1	6	-0.683	-1.4	-7.074	19.2253	
257	1	7	0.418	-2.4	-7.074	19.2253	
258	1	6	-0.683	1.4	5.6592	14.3243	
259	1	7	0.418	2.4	5.6592	14.3243	
260	1	6	-0.683	1.4	-5.6592	19.2253	
261	1	7	0.418	2.4	-5.6592	19.2253	
262	1	6	-0.683	-1.4	-2.8296	16.7748	
263	1	7	0.418	-2.4	-2.8296	16.7748	
264	2	1	-0.8476	-26.3877	-26.3639	-45.9783	
265	2	2	0.4238	-25.3877	-26.3639	-45.9783	
266	2	2	0.4238	-26.7211	-25.4211	-45.9783	
267	3	1	-0.8476	-22.9997	-26.3595	-45.9695	
268	3	2	0.4238	-21.9997	-26.3595	-45.9695	
269	3	2	0.4238	-23.333	-25.4167	-45.9695	
270	4	1	-0.8476	-19.5797	-26.37	-46.0324	
271	4	2	0.4238	-18.5797	-26.37	-46.0324	
272	4	2	0.4238	-19.9131	-25.4272	-46.0324	
273	5	1	-0.8476	-16.1818	-26.3405	-46.0476	
274	5	2	0.4238	-15.1818	-26.3405	-46.0476	
275	5	2	0.4238	-16.5151	-25.3977	-46.0476	
276	6	1	-0.8476	-12.758	-26.3017	-45.9937	
277	6	2	0.4238	-11.758	-26.3017	-45.9937	
278	6	2	0.4238	-13.0913	-25.3589	-45.9937	
279	7	1	-0.8476	-9.3902	-26.3371	-46.015	
280	7	2	0.4238	-8.3902	-26.3371	-46.015	
281	7	2	0.4238	-9.7235	-25.3943	-46.015	
282	8	1	-0.8476	-5.9104	-26.3019	-45.9961	
283	8	2	0.4238	-4.9104	-26.3019	-45.9961	
284	8	2	0.4238	-6.2437	-25.3591	-45.9961	
285	9	1	-0.8476	-2.5107	-26.3362	-46.0335	
286	9	2	0.4238	-1.5107	-26.3362	-46.0335	
287	9	2	0.4238	-2.844	-25.3934	-46.0335	
288	10	1	-0.8476	0.87495	-26.3746	-46.0495	
289	10	2	0.4238	1.875	-26.3746	-46.0495	
290	10	2	0.4238	0.54164	-25.4318	-46.0495	
291	11	1	-0.8476	4.2757	-26.3501	-46.0283	
292	11	2	0.4238	5.2757	-26.3501	-46.0283	
293	11	2	0.4238	3.9424	-25.4073	-46.0283	
294	12	1	-0.8476	7.6642	-26.3499	-46.0311	
295	12	2	0.4238	8.6642	-26.3499	-46.0311	
296	12	2	0.4238	7.3309	-25.4071	-46.0311	
297	13	1	-0.8476	11.0319	-26.342	-46.0278	
298	13	2	0.4238	12.0319	-26.342	-46.0278	
299	13	2	0.4238	10.6986	-25.3992	-46.0278	
300	14	1	-0.8476	14.4693	-26.3462	-46.0183	
301	14	2	0.4238	15.4693	-26.3462	-46.0183	
302	14	2	0.4238	14.136	-25.4034	-46.0183	
303	15	1	-0.8476	17.8573	-26.3642	-45.9843	
304	15	2	0.4238	18.8573	-26.3642	-45.9843	
305	15	2	0.4238	17.524	-25.4214	-45.9843	
306	16	1	-0.8476	21.2777	-26.3802	-46.0281	
307	16	2	0.4238	22.2777	-26.3802	-46.0281	
308	16	2	0.4238	20.9444	-25.4374	-46.0281	
309	17	1	-0.8476	24.691	-26.3814	-46.0147	
310	17	2	0.4238	25.691	-26.3814	-46.0147	
311	17	2	0.4238	24.3577	-25.4386	-46.0147	
312	18	1	-0.8476	-26.3152	-22.9618	-45.9942	
313	18	2	0.4238	-25.3152	-22.9618	-45.9942	
314	18	2	0.4238	-26.6485	-22.019	-45.9942	
315	19	1	-0.8476	-22.9628	-22.9732	-45.9852	
316	19	2	0.4238	-21.9628	-22.9732	-45.9852	
317	19	2	0.4238	-23.2961	-22.0304	-45.9852	
318	20	1	-0.8476	-19.5291	-22.9499	-45.9534	
319	20	2	0.4238	-18.5291	-22.9499	-45.9534	
320	20	2	0.4238	-19.8625	-22.0071	-45.9534	
321	21	1	-0.8476	-16.1819	-22.9484	-46.0083	
322	21	2	0.4238	-15.1819	-22.9484	-46.0083	
323	21	2	0.4238	-16.5152	-22.0056	-46.0083	
324	22	1	-0.8476	-12.7053	-22.9517	-46.0271	
325	22	2	0.4238	-11.7053	-22.9517	-46.0271	
326	22	2	0.4238	-13.0386	-22.0089	-46.0271	
327	23	1	-0.8476	-9.3935	-22.93	-46.0292	
328	23	2	0.4238	-8.3935	-22.93	-46.0292	
329	23	2	0.4238	-9.7268	-21.9872	-46.0292	
330	24	1	-0.8476	-5.9021	-22.932	-46.0238	
331	24	2	0.4238	-4.9021	-22.932	-46.0238	
332	24	2	0.4238	-6.2354	-21.9892	-46.0238	
333	25	1	-0.8476	-2.506	-22.9816	-46.0257	
334	25	2	0.4238	-1.506	-22.9816	-46.0257	
335	25	2	0.4238	-2.8393	-22.0388	-46.0257	
336	26	1	-0.8476	0.81189	-22.9341	-45.9586	
337	26	2	0.4238	1.8119	-22.9341	-45.9586	
338	26	2	0.4238	0.47858	-21.9913	-45.9586	
339	27	1	-0.8476	4.2434	-22.9801	-45.9697	
340	27	2	0.4238	5.2434	-22.9801	-45.9697	
341	27	2	0.4238	3.9101	-22.0373	-45.9697	
342	28	1	-0.8476	7.6867	-22.9076	-46.0344	
343	28	2	0.4238	8.6867	-22.9076	-46.0344	
344	28	2	0.4238	7.3533	-21.9648	-46.0344	
345	29	1	-0.8476	11.0552	-22.9441	-46.0083	
346	29	2	0.4238	12.0552	-22.9441	-46.0083	
347	29	2	0.4238	10.7219	-22.0013	-46.0083	
348	30	1	-0.8476	14.4736	-22.9146	-46.0429	
349	30	2	0.4238	15.4736	-22.9146	-46.0429	
350	30	2	0.4238	14.1403	-21.9718	-46.0429	
351	31	1	-0.8476	17.808	-22.9193	-45.9897	
352	31	2	0.4238	18.808	-22.9193	-45.9897	
353	31	2	0.4238	17.4747	-21.9765	-45.9897	
354	32	1	-0.8476	21.2255	-22.9673	-46.0287	
355	32	2	0.4238	22.2255	-22.9673	-46.0287	
356	32	2	0.4238	20.8922	-22.0245	-46.0287	
357	33	1	-0.8476	24.6502	-22.9384	-46.0498	
358	33	2	0.4238	25.6502	-22.9384	-46.0498	
359	33	2	0.4238	24.3169	-21.9956	-46.0498	
360	34	1	-0.8476	-26.3691	-19.5197	-45.9853	
361	34	2	0.4238	-25.3691	-19.5197	-45.9853	
362	34	2	0.4238	-26.7024	-18.5769	-45.9853	
363	35	1	-0.8476	-22.9606	-19.5316	-46.0384	
364	35	2	0.4238	-21.9606	-19.5316	-46.0384	
365	35	2	0.4238	-23.2939	-18.5888	-46.0384	
366	36	1	-0.8476	-19.5666	-19.5521	-46.0002	
367	36	2	0.4238	-18.5666	-19.5521	-46.0002	
368	36	2	0.4238	-19.8999	-18.6093	-46.0002	
369	37	1	-0.8476	-16.121	-19.5355	-45.9642	
370	37	2	0.4238	-15.121	-19.5355	-45.9642	
371	37	2	0.4238	-16.4543	-18.5927	-45.9642	
372	38	1	-0.8476	-12.7416	-19.5682	-45.9954	
373	38	2	0.4238	-11.7416	-19.5682	-45.9954	
374	38	2	0.4238	-13.0749	-18.6254	-45.9954	
375	39	1	-0.8476	-9.3487	-19.5121	-46.0479	
376	39	2	0.4238	-8.3487	-19.5121	-46.0479	
377	39	2	0.4238	-9.682	-18.5693	-46.0479	
378	40	1	-0.8476	-5.9155	-19.557	-46.0238	
379	40	2	0.4238	-4.9155	-19.557	-46.0238	
380	40	2	0.4238	-6.2489	-18.6142	-46.0238	
381	41	1	-0.8476	-2.5174	-19.5959	-45.9702	
382	41	2	0.4238	-1.5174	-19.5959	-45.9702	
383	41	2	0.4238	-2.8507	-18.6531	-45.9702	
384	42	1	-0.8476	0.88307	-19.5882	-46.0477	
385	42	2	0.4238	1.8831	-19.5882	-46.0477	
386	42	2	0.4238	0.54976	-18.6454	-46.0477	
387	43	1	-0.8476	4.2724	-19.5891	-46.011	
388	43	2	0.4238	5.2724	-19.5891	-46.011	
389	43	2	0.4238	3.9391	-18.6463	-46.011	
390	44	1	-0.8476	7.6631	-19.5096	-46.0102	
391	44	2	0.4238	8.6631	-19.5096	-46.0102	
392	44	2	0.4238	7.3298	-18.5668	-46.0102	
393	45	1	-0.8476	11.0904	-19.5141	-45.9615	
394	45	2	0.4238	12.0904	-19.5141	-45.9615	
395	45	2	0.4238	10.7571	-18.5713	-45.9615	
396	46	1	-0.8476	14.4266	-19.5486	-45.9723	
397	46	2	0.4238	15.4266	-19.5486	-45.9723	
398	46	2	0.4238	14.0933	-18.6058	-45.9723	
399	47	1	-0.8476	17.8805	-19.5374	-46.0028	
400	47	2	0.4238	18.8805	-19.5374	-46.0028	
401	47	2	0.4238	17.5472	-18.5946	-46.0028	
402	48	1	-0.8476	21.2307	-19.5928	-46.0474	
403	48	2	0.4238	22.2307	-19.5928	-46.0474	
404	48	2	0.4238	20.8974	-18.65	-46.0474	
405	49	1	-0.8476	24.6016	-19.576	-45.9566	
406	49	2	0.4238	25.6016	-19.576	-45.9566	
407	49	2	0.4238	24.2682	-18.6332	-45.9566	
408	50	1	-0.8476	-26.3517	-16.1981	-46.0202	
409	50	2	0.4238	-25.3517	-16.1981	-46.0202	
410	50	2	0.4238	-26.685	-15.2553	-46.0202	
411	51	1	-0.8476	-22.9169	-16.1267	-45.9623	
412	51	2	0.4238	-21.9169	-16.1267	-45.9623	
413	51	2	0.4238	-23.2502	-15.1839	-45.9623	
414	52	1	-0.8476	-19.5219	-16.1248	-45.9827	
415	52	2	0.4238	-18.5219	-16.1248	-45.9827	
416	52	2	0.4238	-19.8552	-15.182	-45.9827	
417	53	1	-0.8476	-16.1815	-16.1381	-45.9539	
418	53	2	0.4238	-15.1815	-16.1381	-45.9539	
419	53	2	0.4238	-16.5148	-15.1953	-45.9539	
420	54	1	-0.8476	-12.7887	-16.1508	-46.0399	
421	54	2	0.4238	-11.7887	-16.1508	-46.0399	
422	54	2	0.4238	-13.1221	-15.208	-46.0399	
423	55	1	-0.8476	-9.3464	-16.1202	-46.0495	
424	55	2	0.4238	-8.3464	-16.1202	-46.0495	
425	55	2	0.4238	-9.6797	-15.1774	-46.0495	
426	56	1	-0.8476	-5.9423	-16.1233	-45.9653	
427	56	2	0.4238	-4.9423	-16.1233	-45.9653	
428	56	2	0.4238	-6.2756	-15.1805	-45.9653	
429	57	1	-0.8476	-2.5839	-16.151	-46.0105	
430	57	2	0.4238	-1.5839	-16.151	-46.0105	
431	57	2	0.4238	-2.9173	-15.2082	-46.0105	
432	58	1	-0.8476	0.81735	-16.1112	-46.044	
433	58	2	0.4238	1.8174	-16.1112	-46.044	
434	58	2	0.4238	0.48404	-15.1684	-46.044	
435	59	1	-0.8476	4.2821	-16.1358	-45.9933	
436	59	2	0.4238	5.2821	-16.1358	-45.9933	
437	59	2	0.4238	3.9488	-15.193	-45.9933	
438	60	1	-0.8476	7.6724	-16.1769	-46.0132	
439	60	2	0.4238	8.6724	-16.1769	-46.0132	
440	60	2	0.4238	7.3391	-15.2341	-46.0132	
441	61	1	-0.8476	11.0241	-16.1528	-46.0325	
442	61	2	0.4238	12.0241	-16.1528	-46.0325	
443	61	2	0.4238	10.6908	-15.21	-46.0325	
444	62	1	-0.8476	14.4492	-16.1453	-46.0114	
445	62	2	0.4238	15.4492	-16.1453	-46.0114	
446	62	2	0.4238	14.1159	-15.2025	-46.0114	
447	63	1	-0.8476	17.8139	-16.1967	-45.9663	
448	63	2	0.4238	18.8139	-16.1967	-45.9663	
449	63	2	0.4238	17.4806	-15.2539	-45.9663	
450	64	1	-0.8476	21.2687	-16.1313	-45.9949	
451	64	2	0.4238	22.2687	-16.1313	-45.9949	
452	64	2	0.4238	20.9354	-15.1885	-45.9949	
453	65	1	-0.8476	24.6034	-16.1796	-45.9978	
454	65	2	0.4238	25.6034	-16.1796	-45.9978	
455	65	2	0.4238	24.2701	-15.2368	-45.9978	
456	66	1	-0.8476	-26.3387	-12.7999	-46.0191	
457	66	2	0.4238	-25.3387	-12.7999	-46.0191	
458	66	2	0.4238	-26.672	-11.8571	-46.0191	
459	67	1	-0.8476	-22.9565	-12.7894	-46.034	
460	67	2	0.4238	-21.9565	-12.7894	-46.034	
461	67	2	0.4238	-23.2898	-11.8466	-46.034	
462	68	1	-0.8476	-19.5875	-12.7283	-45.9796	
463	68	2	0.4238	-18.5875	-12.7283	-45.9796	
464	68	2	0.4238	-19.9208	-11.7855	-45.9796	
465	69	1	-0.8476	-16.1613	-12.745	-46.04	
466	69	2	0.4238	-15.1613	-12.745	-46.04	
467	69	2	0.4238	-16.4946	-11.8022	-46.04	
468	70	1	-0.8476	-12.7345	-12.756	-45.9611	
469	70	2	0.4238	-11.7345	-12.756	-45.9611	
470	70	2	0.4238	-13.0678	-11.8132	-45.9611	
471	71	1	-0.8476	-9.3029	-12.7378	-46.0156	
472	71	2	0.4238	-8.3029	-12.7378	-46.0156	
473	71	2	0.4238	-9.6362	-11.795	-46.0156	
474	72	1	-0.8476	-5.9732	-12.7668	-46.0182	
475	72	2	0.4238	-4.9732	-12.7668	-46.0182	
476	72	2	0.4238	-6.3065	-11.824	-46.0182	
477	73	1	-0.8476	-2.5553	-12.754	-46.0214	
478	73	2	0.4238	-1.5553	-12.754	-46.0214	
479	73	2	0.4238	-2.8886	-11.8112	-46.0214	
480	74	1	-0.8476	0.88015	-12.7858	-45.9671	
481	74	2	0.4238	1.8801	-12.7858	-45.9671	
482	74	2	0.4238	0.54684	-11.843	-45.9671	
483	75	1	-0.8476	4.2019	-12.7236	-45.9675	
484	75	2	0.4238	5.2019	-12.7236	-45.9675	
485	75	2	0.4238	3.8686	-11.7808	-45.9675	
486	76	1	-0.8476	7.6613	-12.7686	-46.0244	
487	76	2	0.4238	8.6613	-12.7686	-46.0244	
488	76	2	0.4238	7.328	-11.8258	-46.0244	
489	77	1	-0.8476	11.0662	-12.7761	-46.0018	
490	77	2	0.4238	12.0662	-12.7761	-46.0018	
491	77	2	0.4238	10.7328	-11.8333	-46.0018	
492	78	1	-0.8476	14.4188	-12.7015	-45.9963	
493	78	2	0.4238	15.4188	-12.7015	-45.9963	
494	78	2	0.4238	14.0855	-11.7587	-45.9963	
495	79	1	-0.8476	17.8806	-12.7173	-46.0051	
496	79	2	0.4238	18.8806	-12.7173	-46.0051	
497	79	2	0.4238	17.5472	-11.7745	-46.0051	
498	80	1	-0.8476	21.2302	-12.7021	-45.9715	
499	80	2	0.4238	22.2302	-12.7021	-45.9715	
500	80	2	0.4238	20.8969	-11.7593	-45.9715	
501	81	1	-0.8476	24.6521	-12.7351	-46.0365	
502	81	2	0.4238	25.6521	-12.7351	-46.0365	
503	81	2	0.4238	24.3188	-11.7923	-46.0365	
504	82	1	-0.8476	-26.3199	-9.301	-46.0069	
505	82	2	0.4238	-25.3199	-9.301	-46.0069	
506	82	2	0.4238	-26.6532	-8.3582	-46.0069	
507	83	1	-0.8476	-22.9655	-9.3191	-45.9997	
508	83	2	0.4238	-21.9655	-9.3191	-45.9997	
509	83	2	0.4238	-23.2988	-8.3763	-45.9997	
510	84	1	-0.8476	-19.518	-9.3712	-46.047	
511	84	2	0.4238	-18.518	-9.3712	-46.047	
512	84	2	0.4238	-19.8513	-8.4284	-46.047	
513	85	1	-0.8476	-16.1418	-9.3646	-45.9642	
514	85	2	0.4238	-15.1418	-9.3646	-45.9642	
515	85	2	0.4238	-16.4751	-8.4218	-45.9642	
516	86	1	-0.8476	-12.7369	-9.3497	-45.9759	
517	86	2	0.4238	-11.7369	-9.3497	-45.9759	
518	86	2	0.4238	-13.0702	-8.4069	-45.9759	
519	87	1	-0.8476	-9.3886	-9.3221	-46.0329	
520	87	2	0.4238	-8.3886	-9.3221	-46.0329	
521	87	2	0.4238	-9.7219	-8.3793	-46.0329	
522	88	1	-0.8476	-5.9908	-9.3946	-45.9757	
523	88	2	0.4238	-4.9908	-9.3946	-45.9757	
524	88	2	0.4238	-6.3242	-8.4518	-45.9757	
525	89	1	-0.8476	-2.5333	-9.3778	-46.0383	
526	89	2	0.4238	-1.5333	-9.3778	-46.0383	
527	89	2	0.4238	-2.8666	-8.435	-46.0383	
528	90	1	-0.8476	0.89072	-9.359	-46.0229	
529	90	2	0.4238	1.8907	-9.359	-46.0229	
530	90	2	0.4238	0.55741	-8.4162	-46.0229	
531	91	1	-0.8476	4.2226	-9.3804	-46.0334	
532	91	2	0.4238	5.2226	-9.3804	-46.0334	
533	91	2	0.4238	3.8893	-8.4376	-46.0334	
534	92	1	-0.8476	7.6615	-9.3278	-45.9537	
535	92	2	0.4238	8.6615	-9.3278	-45.9537	
536	92	2	0.4238	7.3282	-8.385	-45.9537	
537	93	1	-0.8476	11.0688	-9.3044	-45.9603	
538	93	2	0.4238	12.0688	-9.3044	-45.9603	
539	93	2	0.4238	10.7355	-8.3616	-45.9603	
540	94	1	-0.8476	14.4453	-9.3665	-46.0276	
541	94	2	0.4238	15.4453	-9.3665	-46.0276	
542	94	2	0.4238	14.112	-8.4237	-46.0276	
543	95	1	-0.8476	17.8671	-9.3748	-45.9599	
544	95	2	0.4238	18.8671	-9.3748	-45.9599	
545	95	2	0.4238	17.5338	-8.432	-45.9599	
546	96	1	-0.8476	21.2956	-9.325	-45.9879	
547	96	2	0.4238	22.2956	-9.325	-45.9879	
548	96	2	0.4238	20.9623	-8.3822	-45.9879	
549	97	1	-0.8476	24.6713	-9.377	-46.0109	
550	97	2	0.4238	25.6713	-9.377	-46.0109	
551	97	2	0.4238	24.338	-8.4342	-46.0109	
552	98	1	-0.8476	-26.3943	-5.9228	-45.9599	
553	98	2	0.4238	-25.3943	-5.9228	-45.9599	
554	98	2	0.4238	-26.7276	-4.98	-45.9599	
555	99	1	-0.8476	-22.9318	-5.9598	-45.9983	
556	99	2	0.4238	-21.9318	-5.9598	-45.9983	
557	99	2	0.4238	-23.2651	-5.017	-45.9983	
558	100	1	-0.8476	-19.5125	-5.9133	-45.9866	
559	100	2	0.4238	-18.5125	-5.9133	-45.9866	
560	100	2	0.4238	-19.8458	-4.9705	-45.9866	
561	101	1	-0.8476	-16.136	-5.9735	-46.0174	
562	101	2	0.4238	-15.136	-5.9735	-46.0174	
563	101	2	0.4238	-16.4693	-5.0307	-46.0174	
564	102	1	-0.8476	-12.7494	-5.9079	-46.0106	
565	102	2	0.4238	-11.7494	-5.9079	-46.0106	
566	102	2	0.4238	-13.0827	-4.9651	-46.0106	
567	103	1	-0.8476	-9.3427	-5.9702	-46.0332	
568	103	2	0.4238	-8.3427	-5.9702	-46.0332	
569	103	2	0.4238	-9.676	-5.0274	-46.0332	
570	104	1	-0.8476	-5.9752	-5.9476	-46.0231	
571	104	2	0.4238	-4.9752	-5.9476	-46.0231	
572	104	2	0.4238	-6.3085	-5.0048	-46.0231	
573	105	1	-0.8476	-2.571	-5.9207	-46.0002	
574	105	2	0.4238	-1.571	-5.9207	-46.0002	
575	105	2	0.4238	-2.9043	-4.9779	-46.0002	
576	106	1	-0.8476	0.85118	-5.9474	-46.0255	
577	106	2	0.4238	1.8512	-5.9474	-46.0255	
578	106	2	0.4238	0.51787	-5.0046	-46.0255	
579	107	1	-0.8476	4.2242	-5.9496	-46.0361	
580	107	2	0.4238	5.2242	-5.9496	-46.0361	
581	107	2	0.4238	3.8909	-5.0068	-46.0361	
582	108	1	-0.8476	7.6002	-5.947	-45.9802	
583	108	2	0.4238	8.6002	-5.947	-45.9802	
584	108	2	0.4238	7.2669	-5.0042	-45.9802	
585	109	1	-0.8476	11.051	-5.9361	-45.9923	
586	109	2	0.4238	12.051	-5.9361	-45.9923	
587	109	2	0.4238	10.7177	-4.9933	-45.9923	
588	110	1	-0.8476	14.4507	-5.9371	-46.0385	
589	110	2	0.4238	15.4507	-5.9371	-46.0385	
590	110	2	0.4238	14.1174	-4.9943	-46.0385	
591	111	1	-0.8476	17.8668	-5.9084	-45.9824	
592	111	2	0.4238	18.8668	-5.9084	-45.9824	
593	111	2	0.4238	17.5335	-4.9656	-45.9824	
594	112	1	-0.8476	21.232	-5.9628	-46.0318	
595	112	2	0.4238	22.232	-5.9628	-46.0318	
596	112	2	0.4238	20.8987	-5.02	-46.0318	
597	113	1	-0.8476	24.6907	-5.9359	-46.0066	
598	113	2	0.4238	25.6907	-5.9359	-46.0066	
599	113	2	0.4238	24.3574	-4.9931	-46.0066	
600	114	1	-0.8476	-26.3709	-2.5378	-45.9646	
601	114	2	0.4238	-25.3709	-2.5378	-45.9646	
602	114	2	0.4238	-26.7042	-1.595	-45.9646	
603	115	1	-0.8476	-22.9216	-2.5022	-46.0174	
604	115	2	0.4238	-21.9216	-2.5022	-46.0174	
605	115	2	0.4238	-23.2549	-1.5594	-46.0174	
606	116	1	-0.8476	-19.5164	-2.5027	-46.0325	
607	116	2	0.4238	-18.5164	-2.5027	-46.0325	
608	116	2	0.4238	-19.8497	-1.5599	-46.0325	
609	117	1	-0.8476	-16.1298	-2.5898	-46.0491	
610	117	2	0.4238	-15.1298	-2.5898	-46.0491	
611	117	2	0.4238	-16.4631	-1.647	-46.0491	
612	118	1	-0.8476	-12.7245	-2.5317	-46.0376	
613	118	2	0.4238	-11.7245	-2.5317	-46.0376	
614	118	2	0.4238	-13.0578	-1.5889	-46.0376	
615	119	1	-0.8476	-9.3938	-2.5074	-45.9943	
616	119	2	0.4238	-8.3938	-2.5074	-45.9943	
617	119	2	0.4238	-9.7271	-1.5646	-45.9943	
618	120	1	-0.8476	-5.9907	-2.5677	-46.0297	
619	120	2	0.4238	-4.9907	-2.5677	-46.0297	
620	120	2	0.4238	-6.324	-1.6249	-46.0297	
621	121	1	-0.8476	-2.5427	-2.5517	-45.9885	
622	121	2	0.4238	-1.5427	-2.5517	-45.9885	
623	121	2	0.4238	-2.876	-1.6089	-45.9885	
624	122	1	-0.8476	0.81497	-2.5889	-46.0203	
625	122	2	0.4238	1.815	-2.5889	-46.0203	
626	122	2	0.4238	0.48166	-1.6461	-46.0203	
627	123	1	-0.8476	4.2641	-2.5195	-46.0128	
628	123	2	0.4238	5.2641	-2.5195	-46.0128	
629	123	2	0.4238	3.9308	-1.5767	-46.0128	
630	124	1	-0.8476	7.6749	-2.5504	-46.048	
631	124	2	0.4238	8.6749	-2.5504	-46.048	
632	124	2	0.4238	7.3416	-1.6076	-46.048	
633	125	1	-0.8476	11.0942	-2.5243	-45.996	
634	125	2	0.4238	12.0942	-2.5243	-45.996	
635	125	2	0.4238	10.7609	-1.5815	-45.996	
636	126	1	-0.8476	14.4432	-2.5573	-46.0494	
637	126	2	0.4238	15.4432	-2.5573	-46.0494	
638	126	2	0.4238	14.1099	-1.6145	-46.0494	
639	127	1	-0.8476	17.8998	-2.5854	-45.9611	
640	127	2	0.4238	18.8998	-2.5854	-45.9611	
641	127	2	0.4238	17.5665	-1.6426	-45.9611	
642	128	1	-0.8476	21.2051	-2.5918	-46.0148	
643	128	2	0.4238	22.2051	-2.5918	-46.0148	
644	128	2	0.4238	20.8718	-1.649	-46.0148	
645	129	1	-0.8476	24.6656	-2.5516	-45.9718	
646	129	2	0.4238	25.6656	-2.5516	-45.9718	
647	129	2	0.4238	24.3323	-1.6088	-45.9718	
648	130	1	-0.8476	-26.3863	0.8457	-45.9638	
649	130	2	0.4238	-25.3863	0.8457	-45.9638	
650	130	2	0.4238	-26.7196	1.7885	-45.9638	
651	131	1	-0.8476	-22.9935	0.8125	-46.019	
652	131	2	0.4238	-21.9935	0.8125	-46.019	
653	131	2	0.4238	-23.3268	1.7553	-46.019	
654	132	1	-0.8476	-19.5506	0.82411	-45.9869	
655	132	2	0.4238	-18.5506	0.82411	-45.9869	
656	132	2	0.4238	-19.8839	1.7669	-45.9869	
657	133	1	-0.8476	-16.1706	0.88516	-46.0127	
658	133	2	0.4238	-15.1706	0.88516	-46.0127	
659	133	2	0.4238	-16.504	1.828	-46.0127	
660	134	1	-0.8476	-12.7477	0.84593	-46.0097	
661	134	2	0.4238	-11.7477	0.84593	-46.0097	
662	134	2	0.4238	-13.081	1.7887	-46.0097	
663	135	1	-0.8476	-9.326	0.85513	-45.9705	
664	135	2	0.4238	-8.326	0.85513	-45.9705	
665	135	2	0.4238	-9.6593	1.7979	-45.9705	
666	136	1	-0.8476	-5.9925	0.85744	-46.0284	
667	136	2	0.4238	-4.9925	0.85744	-46.0284	
668	136	2	0.4238	-6.3259	1.8002	-46.0284	
669	137	1	-0.8476	-2.538	0.84195	-45.9778	
670	137	2	0.4238	-1.538	0.84195	-45.9778	
671	137	2	0.4238	-2.8713	1.7847	-45.9778	
672	138	1	-0.8476	0.85529	0.89597	-46.0161	
673	138	2	0.4238	1.8553	0.89597	-46.0161	
674	138	2	0.4238	0.52198	1.8388	-46.0161	
675	139	1	-0.8476	4.2292	0.80561	-45.9532	
676	139	2	0.4238	5.2292	0.80561	-45.9532	
677	139	2	0.4238	3.8959	1.7484	-45.9532	
678	140	1	-0.8476	7.6864	0.83282	-45.9509	
679	140	2	0.4238	8.6864	0.83282	-45.9509	
680	140	2	0.4238	7.3531	1.7756	-45.9509	
681	141	1	-0.8476	11.035	0.83794	-46.0055	
682	141	2	0.4238	12.035	0.83794	-46.0055	
683	141	2	0.4238	10.7017	1.7807	-46.0055	
684	142	1	-0.8476	14.4123	0.89051	-46.0445	
685	142	2	0.4238	15.4123	0.89051	-46.0445	
686	142	2	0.4238	14.079	1.8333	-46.0445	
687	143	1	-0.8476	17.8947	0.87196	-46.0068	
688	143	2	0.4238	18.8947	0.87196	-46.0068	
689	143	2	0.4238	17.5614	1.8148	-46.0068	
690	144	1	-0.8476	21.2249	0.8758	-46.0484	
691	144	2	0.4238	22.2249	0.8758	-46.0484	
692	144	2	0.4238	20.8916	1.8186	-46.0484	
693	145	1	-0.8476	24.6612	0.80421	-46.0248	
694	145	2	0.4238	25.6612	0.80421	-46.0248	
695	145	2	0.4238	24.3279	1.747	-46.0248	
696	146	1	-0.8476	-26.3765	4.2725	-45.9592	
697	146	2	0.4238	-25.3765	4.2725	-45.9592	
698	146	2	0.4238	-26.7099	5.2153	-45.9592	
699	147	1	-0.8476	-22.9995	4.201	-46.0418	
700	147	2	0.4238	-21.9995	4.201	-46.0418	
701	147	2	0.4238	-23.3328	5.1438	-46.0418	
702	148	1	-0.8476	-19.5608	4.274	-45.9946	
703	148	2	0.4238	-18.5608	4.274	-45.9946	
704	148	2	0.4238	-19.8941	5.2168	-45.9946	
705	149	1	-0.8476	-16.1564	4.2941	-45.9926	
706	149	2	0.4238	-15.1564	4.2941	-45.9926	
707	149	2	0.4238	-16.4897	5.2369	-45.9926	
708	150	1	-0.8476	-12.764	4.2936	-46.045	
709	150	2	0.4238	-11.764	4.2936	-46.045	
710	150	2	0.4238	-13.0973	5.2364	-46.045	
711	151	1	-0.8476	-9.3736	4.2569	-46.0148	
712	151	2	0.4238	-8.3736	4.2569	-46.0148	
713	151	2	0.4238	-9.7069	5.1997	-46.0148	
714	152	1	-0.8476	-5.949	4.2202	-46.0381	
715	152	2	0.4238	-4.949	4.2202	-46.0381	
716	152	2	0.4238	-6.2823	5.163	-46.0381	
717	153	1	-0.8476	-2.5175	4.2489	-46.0086	
718	153	2	0.4238	-1.5175	4.2489	-46.0086	
719	153	2	0.4238	-2.8508	5.1917	-46.0086	
720	154	1	-0.8476	0.89492	4.2575	-45.9985	
721	154	2	0.4238	1.8949	4.2575	-45.9985	
722	154	2	0.4238	0.56161	5.2003	-45.9985	
723	155	1	-0.8476	4.2672	4.2086	-45.9682	
724	155	2	0.4238	5.2672	4.2086	-45.9682	
725	155	2	0.4238	3.9339	5.1514	-45.9682	
726	156	1	-0.8476	7.6458	4.2067	-45.9765	
727	156	2	0.4238	8.6458	4.2067	-45.9765	
728	156	2	0.4238	7.3125	5.1495	-45.9765	
729	157	1	-0.8476	11.0097	4.2169	-46.0448	
730	157	2	0.4238	12.0097	4.2169	-46.0448	
731	157	2	0.4238	10.6763	5.1597	-46.0448	
732	158	1	-0.8476	14.466	4.2635	-45.9623	
733	158	2	0.4238	15.466	4.2635	-45.9623	
734	158	2	0.4238	14.1327	5.2063	-45.9623	
735	159	1	-0.8476	17.8365	4.2151	-46.011	
736	159	2	0.4238	18.8365	4.2151	-46.011	
737	159	2	0.4238	17.5032	5.1579	-46.011	
738	160	1	-0.8476	21.2586	4.2231	-46.0421	
739	160	2	0.4238	22.2586	4.2231	-46.0421	
740	160	2	0.4238	20.9252	5.1659	-46.0421	
741	161	1	-0.8476	24.6934	4.2065	-45.9688	
742	161	2	0.4238	25.6934	4.2065	-45.9688	
743	161	2	0.4238	24.3601	5.1493	-45.9688	
744	162	1	-0.8476	-26.3548	7.6602	-45.9754	
745	162	2	0.4238	-25.3548	7.6602	-45.9754	
746	162	2	0.4238	-26.6881	8.603	-45.9754	
747	163	1	-0.8476	-22.9415	7.6808	-45.9889	
748	163	2	0.4238	-21.9415	7.6808	-45.9889	
749	163	2	0.4238	-23.2749	8.6236	-45.9889	
750	164	1	-0.8476	-19.579	7.6192	-46.0325	
751	164	2	0.4238	-18.579	7.6192	-46.0325	
752	164	2	0.4238	-19.9124	8.562	-46.0325	
753	165	1	-0.8476	-16.1139	7.6375	-46.0435	
754	165	2	0.4238	-15.1139	7.6375	-46.0435	
755	165	2	0.4238	-16.4472	8.5803	-46.0435	
756	166	1	-0.8476	-12.7871	7.6321	-45.9975	
757	166	2	0.4238	-11.7871	7.6321	-45.9975	
758	166	2	0.4238	-13.1204	8.5749	-45.9975	
759	167	1	-0.8476	-9.3557	7.6617	-46.0239	
760	167	2	0.4238	-8.3557	7.6617	-46.0239	
761	167	2	0.4238	-9.689	8.6045	-46.0239	
762	168	1	-0.8476	-5.9997	7.6417	-46.0231	
763	168	2	0.4238	-4.9997	7.6417	-46.0231	
764	168	2	0.4238	-6.333	8.5845	-46.0231	
765	169	1	-0.8476	-2.5225	7.6179	-45.9751	
766	169	2	0.4238	-1.5225	7.6179	-45.9751	
767	169	2	0.4238	-2.8558	8.5607	-45.9751	
768	170	1	-0.8476	0.8739	7.62	-46.0476	