# System

13763 atoms
9330 bonds
5113 angles
1193 dihedrals
147 impropers

15 atom types
8 bond types
14 angle types
15 dihedral types
1 improper types
extra bond per atom 2
extra angle per atom 1
extra special per atom 2
-27.2         27.2 xlo xhi
-27.2         27.2 ylo yhi
-50  50 zlo zhi

Atoms

1	1	3	-0.115	0	-9.1962	-21.802	
2	1	3	-0.115	0	-9.9036	-20.5767	
3	1	3	0	0	-9.1962	-19.3515	
4	1	3	-0.115	0	-9.9036	-18.1262	
5	1	3	0	0	-9.1962	-16.901	
6	1	3	-0.115	0	-9.9036	-15.6757	
7	1	3	0	0	-9.1962	-14.4505	
8	1	3	-0.115	0	-9.9036	-13.2252	
9	1	3	0	0	-9.1962	-12	
10	1	13	0.15	0	-9.9036	-10.7747	
11	1	3	0	0	-9.1962	-9.5495	
12	1	3	-0.115	0	-9.9036	-8.3242	
13	1	3	0	0	-9.1962	-7.099	
14	1	13	0.15	0	-9.9036	-5.8737	
15	1	3	0	0	-9.1962	-4.6485	
16	1	3	-0.115	0	-9.9036	-3.4232	
17	1	3	-0.115	0	-9.1962	-2.198	
18	1	13	0.15	0	-7.7814	-21.802	
19	1	3	0	0	-7.074	-20.5767	
20	1	3	0	0	-7.7814	-19.3515	
21	1	3	0	0	-7.074	-18.1262	
22	1	3	0	0	-7.7814	-16.901	
23	1	3	0	0	-7.074	-15.6757	
24	1	3	0	0	-7.7814	-14.4505	
25	1	3	0	0	-7.074	-13.2252	
26	1	5	0.265	0	-7.7814	-12	
27	1	5	0.265	0	-7.074	-10.7747	
28	1	3	0	0	-7.7814	-9.5495	
29	1	3	0	0	-7.074	-8.3242	
30	1	3	0	0	-7.7814	-7.099	
31	1	3	0	0	-7.074	-5.8737	
32	1	3	0	0	-7.7814	-4.6485	
33	1	3	0	0	-7.074	-3.4232	
34	1	3	-0.115	0	-7.7814	-2.198	
35	1	13	0.15	0	-4.9518	-21.802	
36	1	5	0.265	0	-5.6592	-20.5767	
37	1	5	0.265	0	-4.9518	-19.3515	
38	1	5	0.265	0	-5.6592	-18.1262	
39	1	5	0.265	0	-4.9518	-16.901	
40	1	3	0	0	-5.6592	-15.6757	
41	1	5	0.265	0	-4.9518	-14.4505	
42	1	3	0	0	-5.6592	-13.2252	
43	1	5	0.265	0	-4.9518	-12	
44	1	5	0.265	0	-5.6592	-10.7747	
45	1	3	0	0	-4.9518	-9.5495	
46	1	3	0	0	-5.6592	-8.3242	
47	1	3	0	0	-4.9518	-7.099	
48	1	3	0	0	-5.6592	-5.8737	
49	1	3	0	0	-4.9518	-4.6485	
50	1	3	0	0	-5.6592	-3.4232	
51	1	13	0.15	0	-4.9518	-2.198	
52	1	3	-0.115	0	-3.537	-21.802	
53	1	3	0	0	-2.8296	-20.5767	
54	1	3	0	0	-3.537	-19.3515	
55	1	3	0	0	-2.8296	-18.1262	
56	1	5	0.265	0	-3.537	-16.901	
57	1	5	0.265	0	-2.8296	-15.6757	
58	1	5	0.265	0	-3.537	-14.4505	
59	1	5	0.265	0	-2.8296	-13.2252	
60	1	3	0	0	-3.537	-12	
61	1	3	0	0	-2.8296	-10.7747	
62	1	3	0	0	-3.537	-9.5495	
63	1	3	0	0	-2.8296	-8.3242	
64	1	3	0	0	-3.537	-7.099	
65	1	3	0	0	-2.8296	-5.8737	
66	1	3	0	0	-3.537	-4.6485	
67	1	3	0	0	-2.8296	-3.4232	
68	1	3	-0.115	0	-3.537	-2.198	
69	1	3	-0.115	0	-0.7074	-21.802	
70	1	3	0	0	-1.4148	-20.5767	
71	1	3	0	0	-0.7074	-19.3515	
72	1	5	0.265	0	-1.4148	-18.1262	
73	1	5	0.265	0	-0.7074	-16.901	
74	1	3	0	0	-1.4148	-15.6757	
75	1	5	0.265	0	-0.7074	-14.4505	
76	1	3	0	0	-1.4148	-13.2252	
77	1	3	0	0	-0.7074	-12	
78	1	3	0	0	-1.4148	-10.7747	
79	1	3	0	0	-0.7074	-9.5495	
80	1	3	0	0	-1.4148	-8.3242	
81	1	3	0	0	-0.7074	-7.099	
82	1	3	0	0	-1.4148	-5.8737	
83	1	3	0	0	-0.7074	-4.6485	
84	1	3	0	0	-1.4148	-3.4232	
85	1	13	0.15	0	-0.7074	-2.198	
86	1	3	-0.115	0	0.7074	-21.802	
87	1	3	0	0	1.4148	-20.5767	
88	1	5	0.265	0	0.7074	-19.3515	
89	1	5	0.265	0	1.4148	-18.1262	
90	1	3	0	0	0.7074	-16.901	
91	1	3	0	0	1.4148	-15.6757	
92	1	5	0.265	0	0.7074	-14.4505	
93	1	3	0	0	1.4148	-13.2252	
94	1	3	0	0	0.7074	-12	
95	1	3	0	0	1.4148	-10.7747	
96	1	3	0	0	0.7074	-9.5495	
97	1	3	0	0	1.4148	-8.3242	
98	1	3	0	0	0.7074	-7.099	
99	1	3	0	0	1.4148	-5.8737	
100	1	3	0	0	0.7074	-4.6485	
101	1	3	0	0	1.4148	-3.4232	
102	1	3	-0.115	0	0.7074	-2.198	
103	1	13	0.15	0	3.537	-21.802	
104	1	3	0	0	2.8296	-20.5767	
105	1	3	0	0	3.537	-19.3515	
106	1	3	0	0	2.8296	-18.1262	
107	1	5	0.265	0	3.537	-16.901	
108	1	5	0.265	0	2.8296	-15.6757	
109	1	3	0	0	3.537	-14.4505	
110	1	3	0	0	2.8296	-13.2252	
111	1	3	0	0	3.537	-12	
112	1	3	0	0	2.8296	-10.7747	
113	1	3	0	0	3.537	-9.5495	
114	1	3	0	0	2.8296	-8.3242	
115	1	3	0	0	3.537	-7.099	
116	1	3	0	0	2.8296	-5.8737	
117	1	3	0	0	3.537	-4.6485	
118	1	3	0	0	2.8296	-3.4232	
119	1	3	-0.115	0	3.537	-2.198	
120	1	13	0.15	0	4.9518	-21.802	
121	1	3	0	0	5.6592	-20.5767	
122	1	3	0	0	4.9518	-19.3515	
123	1	3	0	0	5.6592	-18.1262	
124	1	3	0	0	4.9518	-16.901	
125	1	5	0.265	0	5.6592	-15.6757	
126	1	5	0.265	0	4.9518	-14.4505	
127	1	3	0	0	5.6592	-13.2252	
128	1	3	0	0	4.9518	-12	
129	1	3	0	0	5.6592	-10.7747	
130	1	3	0	0	4.9518	-9.5495	
131	1	3	0	0	5.6592	-8.3242	
132	1	3	0	0	4.9518	-7.099	
133	1	3	0	0	5.6592	-5.8737	
134	1	3	0	0	4.9518	-4.6485	
135	1	3	0	0	5.6592	-3.4232	
136	1	3	-0.115	0	4.9518	-2.198	
137	1	3	-0.115	0	7.7814	-21.802	
138	1	3	0	0	7.074	-20.5767	
139	1	3	0	0	7.7814	-19.3515	
140	1	3	0	0	7.074	-18.1262	
141	1	3	0	0	7.7814	-16.901	
142	1	3	0	0	7.074	-15.6757	
143	1	3	0	0	7.7814	-14.4505	
144	1	3	0	0	7.074	-13.2252	
145	1	3	0	0	7.7814	-12	
146	1	3	0	0	7.074	-10.7747	
147	1	3	0	0	7.7814	-9.5495	
148	1	3	0	0	7.074	-8.3242	
149	1	3	0	0	7.7814	-7.099	
150	1	3	0	0	7.074	-5.8737	
151	1	3	0	0	7.7814	-4.6485	
152	1	3	0	0	7.074	-3.4232	
153	1	3	-0.115	0	7.7814	-2.198	
154	1	3	-0.115	0	9.1962	-21.802	
155	1	3	-0.115	0	9.9036	-20.5767	
156	1	3	0	0	9.1962	-19.3515	
157	1	3	-0.115	0	9.9036	-18.1262	
158	1	3	0	0	9.1962	-16.901	
159	1	3	-0.115	0	9.9036	-15.6757	
160	1	3	0	0	9.1962	-14.4505	
161	1	3	-0.115	0	9.9036	-13.2252	
162	1	3	0	0	9.1962	-12	
163	1	3	-0.115	0	9.9036	-10.7747	
164	1	3	0	0	9.1962	-9.5495	
165	1	13	0.15	0	9.9036	-8.3242	
166	1	3	0	0	9.1962	-7.099	
167	1	13	0.15	0	9.9036	-5.8737	
168	1	3	0	0	9.1962	-4.6485	
169	1	3	-0.115	0	9.9036	-3.4232	
170	1	13	0.15	0	9.1962	-2.198	
171	1	4	0.115	0	-10.9806	-20.5767	
172	1	4	0.115	0	-10.9806	-18.1262	
173	1	4	0.115	0	-10.9806	-15.6757	
174	1	4	0.115	0	-10.9806	-13.2252	
175	1	9	-0.585	0	-11.3036	-10.7747	
176	1	4	0.115	0	-10.9806	-8.3242	
177	1	9	-0.585	0	-11.3036	-5.8737	
178	1	4	0.115	0	-10.9806	-3.4232	
179	1	4	0.115	0	10.9806	-20.5767	
180	1	4	0.115	0	10.9806	-18.1262	
181	1	4	0.115	0	10.9806	-15.6757	
182	1	4	0.115	0	10.9806	-13.2252	
183	1	4	0.115	0	10.9806	-10.7747	
184	1	9	-0.585	0	11.3036	-8.3242	
185	1	9	-0.585	0	11.3036	-5.8737	
186	1	4	0.115	0	10.9806	-3.4232	
187	1	4	0.115	0	-9.7347	-22.7347	
188	1	9	-0.585	0	-7.0814	-23.0144	
189	1	4	0.115	0	-9.7347	-1.2652	
190	1	4	0.115	0	-7.2429	-1.2652	
191	1	9	-0.585	0	-5.6518	-23.0144	
192	1	4	0.115	0	-2.9985	-22.7347	
193	1	9	-0.585	0	-5.6518	-0.98552	
194	1	4	0.115	0	-2.9985	-1.2652	
195	1	4	0.115	0	-1.2459	-22.7347	
196	1	4	0.115	0	1.2459	-22.7347	
197	1	9	-0.585	0	-1.4074	-0.98552	
198	1	4	0.115	0	1.2459	-1.2652	
199	1	9	-0.585	0	2.837	-23.0144	
200	1	9	-0.585	0	5.6518	-23.0144	
201	1	4	0.115	0	2.9985	-1.2652	
202	1	4	0.115	0	5.4903	-1.2652	
203	1	4	0.115	0	7.2429	-22.7347	
204	1	4	0.115	0	9.7347	-22.7347	
205	1	4	0.115	0	7.2429	-1.2652	
206	1	9	-0.585	0	9.8962	-0.98552	
207	1	7	0.435	-0.7	-12.0036	-10.7747	
208	1	7	0.435	-0.7	-12.0036	-5.8737	
209	1	7	0.435	-0.7	12.0036	-8.3242	
210	1	7	0.435	0.7	12.0036	-5.8737	
211	1	7	0.435	-0.7	-6.7314	-23.6207	
212	1	7	0.435	-0.7	-6.0018	-23.6207	
213	1	7	0.435	-0.7	-6.0018	-0.37932	
214	1	7	0.435	-0.7	-1.7574	-0.37932	
215	1	7	0.435	0.7	2.487	-23.6207	
216	1	7	0.435	0.7	6.0018	-23.6207	
217	1	7	0.435	0.7	10.2462	-0.37932	
218	1	6	-0.683	1.4	-4.9518	-19.3515	
219	1	7	0.418	2.4	-4.9518	-19.3515	
220	1	6	-0.683	-1.4	-5.6592	-20.5767	
221	1	7	0.418	-2.4	-5.6592	-20.5767	
222	1	6	-0.683	1.4	-5.6592	-18.1262	
223	1	7	0.418	2.4	-5.6592	-18.1262	
224	1	6	-0.683	-1.4	-1.4148	-18.1262	
225	1	7	0.418	-2.4	-1.4148	-18.1262	
226	1	6	-0.683	-1.4	-4.9518	-16.901	
227	1	7	0.418	-2.4	-4.9518	-16.901	
228	1	6	-0.683	1.4	-2.8296	-15.6757	
229	1	7	0.418	2.4	-2.8296	-15.6757	
230	1	6	-0.683	1.4	0.7074	-19.3515	
231	1	7	0.418	2.4	0.7074	-19.3515	
232	1	6	-0.683	-1.4	-0.7074	-16.901	
233	1	7	0.418	-2.4	-0.7074	-16.901	
234	1	6	-0.683	1.4	0.7074	-14.4505	
235	1	7	0.418	2.4	0.7074	-14.4505	
236	1	6	-0.683	-1.4	1.4148	-18.1262	
237	1	7	0.418	-2.4	1.4148	-18.1262	
238	1	6	-0.683	1.4	-0.7074	-14.4505	
239	1	7	0.418	2.4	-0.7074	-14.4505	
240	1	6	-0.683	-1.4	-3.537	-14.4505	
241	1	7	0.418	-2.4	-3.537	-14.4505	
242	1	6	-0.683	1.4	-4.9518	-14.4505	
243	1	7	0.418	2.4	-4.9518	-14.4505	
244	1	6	-0.683	-1.4	-4.9518	-12	
245	1	7	0.418	-2.4	-4.9518	-12	
246	1	6	-0.683	-1.4	-3.537	-16.901	
247	1	7	0.418	-2.4	-3.537	-16.901	
248	1	6	-0.683	-1.4	2.8296	-15.6757	
249	1	7	0.418	-2.4	2.8296	-15.6757	
250	1	6	-0.683	1.4	-7.7814	-12	
251	1	7	0.418	2.4	-7.7814	-12	
252	1	6	-0.683	1.4	3.537	-16.901	
253	1	7	0.418	2.4	3.537	-16.901	
254	1	6	-0.683	1.4	4.9518	-14.4505	
255	1	7	0.418	2.4	4.9518	-14.4505	
256	1	6	-0.683	-1.4	-7.074	-10.7747	
257	1	7	0.418	-2.4	-7.074	-10.7747	
258	1	6	-0.683	1.4	5.6592	-15.6757	
259	1	7	0.418	2.4	5.6592	-15.6757	
260	1	6	-0.683	1.4	-5.6592	-10.7747	
261	1	7	0.418	2.4	-5.6592	-10.7747	
262	1	6	-0.683	-1.4	-2.8296	-13.2252	
263	1	7	0.418	-2.4	-2.8296	-13.2252	
264	2	1	-0.8476	-26.3733	-26.363	-46.0104	
265	2	2	0.4238	-25.3733	-26.363	-46.0104	
266	2	2	0.4238	-26.7066	-25.4202	-46.0104	
267	3	1	-0.8476	-22.9848	-26.3188	-46.0103	
268	3	2	0.4238	-21.9848	-26.3188	-46.0103	
269	3	2	0.4238	-23.3181	-25.376	-46.0103	
270	4	1	-0.8476	-19.5985	-26.3716	-46.0459	
271	4	2	0.4238	-18.5985	-26.3716	-46.0459	
272	4	2	0.4238	-19.9318	-25.4288	-46.0459	
273	5	1	-0.8476	-16.1708	-26.3869	-46.0292	
274	5	2	0.4238	-15.1708	-26.3869	-46.0292	
275	5	2	0.4238	-16.5041	-25.4441	-46.0292	
276	6	1	-0.8476	-12.7709	-26.3635	-46.0489	
277	6	2	0.4238	-11.7709	-26.3635	-46.0489	
278	6	2	0.4238	-13.1042	-25.4207	-46.0489	
279	7	1	-0.8476	-9.369	-26.383	-46.011	
280	7	2	0.4238	-8.369	-26.383	-46.011	
281	7	2	0.4238	-9.7023	-25.4402	-46.011	
282	8	1	-0.8476	-5.99	-26.3139	-45.9514	
283	8	2	0.4238	-4.99	-26.3139	-45.9514	
284	8	2	0.4238	-6.3233	-25.3711	-45.9514	
285	9	1	-0.8476	-2.584	-26.3363	-45.9574	
286	9	2	0.4238	-1.584	-26.3363	-45.9574	
287	9	2	0.4238	-2.9173	-25.3935	-45.9574	
288	10	1	-0.8476	0.80286	-26.3148	-45.9937	
289	10	2	0.4238	1.8029	-26.3148	-45.9937	
290	10	2	0.4238	0.46955	-25.372	-45.9937	
291	11	1	-0.8476	4.2668	-26.3634	-46.0201	
292	11	2	0.4238	5.2668	-26.3634	-46.0201	
293	11	2	0.4238	3.9335	-25.4206	-46.0201	
294	12	1	-0.8476	7.6578	-26.3337	-46.032	
295	12	2	0.4238	8.6578	-26.3337	-46.032	
296	12	2	0.4238	7.3245	-25.3909	-46.032	
297	13	1	-0.8476	11.0388	-26.3309	-46.0478	
298	13	2	0.4238	12.0388	-26.3309	-46.0478	
299	13	2	0.4238	10.7055	-25.3881	-46.0478	
300	14	1	-0.8476	14.4984	-26.3235	-46.0053	
301	14	2	0.4238	15.4984	-26.3235	-46.0053	
302	14	2	0.4238	14.1651	-25.3807	-46.0053	
303	15	1	-0.8476	17.8343	-26.343	-45.9526	
304	15	2	0.4238	18.8343	-26.343	-45.9526	
305	15	2	0.4238	17.501	-25.4002	-45.9526	
306	16	1	-0.8476	21.289	-26.3712	-45.9612	
307	16	2	0.4238	22.289	-26.3712	-45.9612	
308	16	2	0.4238	20.9556	-25.4284	-45.9612	
309	17	1	-0.8476	24.6262	-26.3262	-46.0301	
310	17	2	0.4238	25.6262	-26.3262	-46.0301	
311	17	2	0.4238	24.2929	-25.3834	-46.0301	
312	18	1	-0.8476	-26.3331	-22.9537	-45.9941	
313	18	2	0.4238	-25.3331	-22.9537	-45.9941	
314	18	2	0.4238	-26.6664	-22.0109	-45.9941	
315	19	1	-0.8476	-22.9962	-22.9744	-46.0201	
316	19	2	0.4238	-21.9962	-22.9744	-46.0201	
317	19	2	0.4238	-23.3295	-22.0316	-46.0201	
318	20	1	-0.8476	-19.5393	-22.9273	-45.9936	
319	20	2	0.4238	-18.5393	-22.9273	-45.9936	
320	20	2	0.4238	-19.8726	-21.9845	-45.9936	
321	21	1	-0.8476	-16.1975	-22.9403	-45.9618	
322	21	2	0.4238	-15.1975	-22.9403	-45.9618	
323	21	2	0.4238	-16.5309	-21.9975	-45.9618	
324	22	1	-0.8476	-12.7855	-22.9271	-45.9683	
325	22	2	0.4238	-11.7855	-22.9271	-45.9683	
326	22	2	0.4238	-13.1189	-21.9843	-45.9683	
327	23	1	-0.8476	-9.3167	-22.9249	-46.0269	
328	23	2	0.4238	-8.3167	-22.9249	-46.0269	
329	23	2	0.4238	-9.65	-21.9821	-46.0269	
330	24	1	-0.8476	-5.9687	-22.9311	-45.9576	
331	24	2	0.4238	-4.9687	-22.9311	-45.9576	
332	24	2	0.4238	-6.302	-21.9883	-45.9576	
333	25	1	-0.8476	-2.5944	-22.9897	-46.0275	
334	25	2	0.4238	-1.5944	-22.9897	-46.0275	
335	25	2	0.4238	-2.9277	-22.0469	-46.0275	
336	26	1	-0.8476	0.86093	-22.915	-46.0076	
337	26	2	0.4238	1.8609	-22.915	-46.0076	
338	26	2	0.4238	0.52762	-21.9722	-46.0076	
339	27	1	-0.8476	4.2595	-22.9429	-46.0069	
340	27	2	0.4238	5.2595	-22.9429	-46.0069	
341	27	2	0.4238	3.9262	-22.0001	-46.0069	
342	28	1	-0.8476	7.6507	-22.9224	-45.9737	
343	28	2	0.4238	8.6507	-22.9224	-45.9737	
344	28	2	0.4238	7.3173	-21.9796	-45.9737	
345	29	1	-0.8476	11.0937	-22.9622	-45.9705	
346	29	2	0.4238	12.0937	-22.9622	-45.9705	
347	29	2	0.4238	10.7604	-22.0194	-45.9705	
348	30	1	-0.8476	14.4185	-22.9502	-45.9611	
349	30	2	0.4238	15.4185	-22.9502	-45.9611	
350	30	2	0.4238	14.0852	-22.0074	-45.9611	
351	31	1	-0.8476	17.8174	-22.9282	-46.0238	
352	31	2	0.4238	18.8174	-22.9282	-46.0238	
353	31	2	0.4238	17.4841	-21.9854	-46.0238	
354	32	1	-0.8476	21.2121	-22.9069	-45.9941	
355	32	2	0.4238	22.2121	-22.9069	-45.9941	
356	32	2	0.4238	20.8788	-21.9641	-45.9941	
357	33	1	-0.8476	24.6984	-22.9881	-46.0264	
358	33	2	0.4238	25.6984	-22.9881	-46.0264	
359	33	2	0.4238	24.3651	-22.0453	-46.0264	
360	34	1	-0.8476	-26.3456	-19.5829	-45.989	
361	34	2	0.4238	-25.3456	-19.5829	-45.989	
362	34	2	0.4238	-26.6789	-18.6401	-45.989	
363	35	1	-0.8476	-22.9839	-19.5403	-45.9914	
364	35	2	0.4238	-21.9839	-19.5403	-45.9914	
365	35	2	0.4238	-23.3173	-18.5975	-45.9914	
366	36	1	-0.8476	-19.5072	-19.5316	-46.0167	
367	36	2	0.4238	-18.5072	-19.5316	-46.0167	
368	36	2	0.4238	-19.8405	-18.5888	-46.0167	
369	37	1	-0.8476	-16.1584	-19.5633	-45.9909	
370	37	2	0.4238	-15.1584	-19.5633	-45.9909	
371	37	2	0.4238	-16.4918	-18.6205	-45.9909	
372	38	1	-0.8476	-12.7377	-19.5266	-45.9756	
373	38	2	0.4238	-11.7377	-19.5266	-45.9756	
374	38	2	0.4238	-13.071	-18.5838	-45.9756	
375	39	1	-0.8476	-9.3403	-19.5728	-45.9963	
376	39	2	0.4238	-8.3403	-19.5728	-45.9963	
377	39	2	0.4238	-9.6736	-18.63	-45.9963	
378	40	1	-0.8476	-5.9294	-19.5033	-45.9772	
379	40	2	0.4238	-4.9294	-19.5033	-45.9772	
380	40	2	0.4238	-6.2627	-18.5605	-45.9772	
381	41	1	-0.8476	-2.5165	-19.5865	-45.9767	
382	41	2	0.4238	-1.5165	-19.5865	-45.9767	
383	41	2	0.4238	-2.8498	-18.6437	-45.9767	
384	42	1	-0.8476	0.84758	-19.5448	-46.0105	
385	42	2	0.4238	1.8476	-19.5448	-46.0105	
386	42	2	0.4238	0.51427	-18.602	-46.0105	
387	43	1	-0.8476	4.2348	-19.5432	-45.9953	
388	43	2	0.4238	5.2348	-19.5432	-45.9953	
389	43	2	0.4238	3.9015	-18.6004	-45.9953	
390	44	1	-0.8476	7.6036	-19.5935	-45.9977	
391	44	2	0.4238	8.6036	-19.5935	-45.9977	
392	44	2	0.4238	7.2703	-18.6507	-45.9977	
393	45	1	-0.8476	11.0241	-19.5602	-46.041	
394	45	2	0.4238	12.0241	-19.5602	-46.041	
395	45	2	0.4238	10.6908	-18.6174	-46.041	
396	46	1	-0.8476	14.4515	-19.5397	-45.991	
397	46	2	0.4238	15.4515	-19.5397	-45.991	
398	46	2	0.4238	14.1182	-18.5969	-45.991	
399	47	1	-0.8476	17.8526	-19.5198	-46.0463	
400	47	2	0.4238	18.8526	-19.5198	-46.0463	
401	47	2	0.4238	17.5193	-18.577	-46.0463	
402	48	1	-0.8476	21.2176	-19.5464	-46.0276	
403	48	2	0.4238	22.2176	-19.5464	-46.0276	
404	48	2	0.4238	20.8843	-18.6036	-46.0276	
405	49	1	-0.8476	24.6628	-19.5685	-46.0082	
406	49	2	0.4238	25.6628	-19.5685	-46.0082	
407	49	2	0.4238	24.3295	-18.6257	-46.0082	
408	50	1	-0.8476	-26.3711	-16.1022	-45.9913	
409	50	2	0.4238	-25.3711	-16.1022	-45.9913	
410	50	2	0.4238	-26.7044	-15.1594	-45.9913	
411	51	1	-0.8476	-22.9239	-16.1313	-45.9715	
412	51	2	0.4238	-21.9239	-16.1313	-45.9715	
413	51	2	0.4238	-23.2572	-15.1885	-45.9715	
414	52	1	-0.8476	-19.5346	-16.16	-46.0137	
415	52	2	0.4238	-18.5346	-16.16	-46.0137	
416	52	2	0.4238	-19.8679	-15.2172	-46.0137	
417	53	1	-0.8476	-16.1863	-16.1927	-46.0438	
418	53	2	0.4238	-15.1863	-16.1927	-46.0438	
419	53	2	0.4238	-16.5196	-15.2499	-46.0438	
420	54	1	-0.8476	-12.7347	-16.133	-45.9774	
421	54	2	0.4238	-11.7347	-16.133	-45.9774	
422	54	2	0.4238	-13.068	-15.1902	-45.9774	
423	55	1	-0.8476	-9.3314	-16.1575	-45.9861	
424	55	2	0.4238	-8.3314	-16.1575	-45.9861	
425	55	2	0.4238	-9.6647	-15.2147	-45.9861	
426	56	1	-0.8476	-5.9763	-16.1706	-45.9949	
427	56	2	0.4238	-4.9763	-16.1706	-45.9949	
428	56	2	0.4238	-6.3096	-15.2278	-45.9949	
429	57	1	-0.8476	-2.5561	-16.1479	-46.0351	
430	57	2	0.4238	-1.5561	-16.1479	-46.0351	
431	57	2	0.4238	-2.8894	-15.2051	-46.0351	
432	58	1	-0.8476	0.8749	-16.1279	-46.0096	
433	58	2	0.4238	1.8749	-16.1279	-46.0096	
434	58	2	0.4238	0.54159	-15.1851	-46.0096	
435	59	1	-0.8476	4.2148	-16.1948	-45.9534	
436	59	2	0.4238	5.2148	-16.1948	-45.9534	
437	59	2	0.4238	3.8815	-15.252	-45.9534	
438	60	1	-0.8476	7.6916	-16.1853	-46.0362	
439	60	2	0.4238	8.6916	-16.1853	-46.0362	
440	60	2	0.4238	7.3583	-15.2425	-46.0362	
441	61	1	-0.8476	11.0664	-16.1379	-46.0249	
442	61	2	0.4238	12.0664	-16.1379	-46.0249	
443	61	2	0.4238	10.7331	-15.1951	-46.0249	
444	62	1	-0.8476	14.4018	-16.1361	-45.9516	
445	62	2	0.4238	15.4018	-16.1361	-45.9516	
446	62	2	0.4238	14.0685	-15.1933	-45.9516	
447	63	1	-0.8476	17.8842	-16.1222	-46.0057	
448	63	2	0.4238	18.8842	-16.1222	-46.0057	
449	63	2	0.4238	17.5509	-15.1794	-46.0057	
450	64	1	-0.8476	21.2776	-16.1791	-45.9627	
451	64	2	0.4238	22.2776	-16.1791	-45.9627	
452	64	2	0.4238	20.9443	-15.2363	-45.9627	
453	65	1	-0.8476	24.6438	-16.1216	-46.0362	
454	65	2	0.4238	25.6438	-16.1216	-46.0362	
455	65	2	0.4238	24.3105	-15.1788	-46.0362	
456	66	1	-0.8476	-26.3991	-12.7329	-45.9904	
457	66	2	0.4238	-25.3991	-12.7329	-45.9904	
458	66	2	0.4238	-26.7324	-11.7901	-45.9904	
459	67	1	-0.8476	-22.9003	-12.7038	-46.0485	
460	67	2	0.4238	-21.9003	-12.7038	-46.0485	
461	67	2	0.4238	-23.2336	-11.761	-46.0485	
462	68	1	-0.8476	-19.5318	-12.7136	-45.9939	
463	68	2	0.4238	-18.5318	-12.7136	-45.9939	
464	68	2	0.4238	-19.8651	-11.7708	-45.9939	
465	69	1	-0.8476	-16.1974	-12.727	-45.9758	
466	69	2	0.4238	-15.1974	-12.727	-45.9758	
467	69	2	0.4238	-16.5307	-11.7842	-45.9758	
468	70	1	-0.8476	-12.7626	-12.726	-45.9566	
469	70	2	0.4238	-11.7626	-12.726	-45.9566	
470	70	2	0.4238	-13.096	-11.7832	-45.9566	
471	71	1	-0.8476	-9.3364	-12.7519	-45.9932	
472	71	2	0.4238	-8.3364	-12.7519	-45.9932	
473	71	2	0.4238	-9.6697	-11.8091	-45.9932	
474	72	1	-0.8476	-5.921	-12.7491	-45.9958	
475	72	2	0.4238	-4.921	-12.7491	-45.9958	
476	72	2	0.4238	-6.2543	-11.8063	-45.9958	
477	73	1	-0.8476	-2.5407	-12.7455	-46.0092	
478	73	2	0.4238	-1.5407	-12.7455	-46.0092	
479	73	2	0.4238	-2.874	-11.8027	-46.0092	
480	74	1	-0.8476	0.84422	-12.7959	-45.9859	
481	74	2	0.4238	1.8442	-12.7959	-45.9859	
482	74	2	0.4238	0.51091	-11.8531	-45.9859	
483	75	1	-0.8476	4.24	-12.7393	-46.0345	
484	75	2	0.4238	5.24	-12.7393	-46.0345	
485	75	2	0.4238	3.9067	-11.7965	-46.0345	
486	76	1	-0.8476	7.6266	-12.7313	-45.9709	
487	76	2	0.4238	8.6266	-12.7313	-45.9709	
488	76	2	0.4238	7.2933	-11.7885	-45.9709	
489	77	1	-0.8476	11.0878	-12.715	-46.0271	
490	77	2	0.4238	12.0878	-12.715	-46.0271	
491	77	2	0.4238	10.7545	-11.7722	-46.0271	
492	78	1	-0.8476	14.4692	-12.7032	-46.0484	
493	78	2	0.4238	15.4692	-12.7032	-46.0484	
494	78	2	0.4238	14.1359	-11.7604	-46.0484	
495	79	1	-0.8476	17.8008	-12.7828	-45.9565	
496	79	2	0.4238	18.8008	-12.7828	-45.9565	
497	79	2	0.4238	17.4675	-11.84	-45.9565	
498	80	1	-0.8476	21.2677	-12.779	-45.9925	
499	80	2	0.4238	22.2677	-12.779	-45.9925	
500	80	2	0.4238	20.9344	-11.8362	-45.9925	
501	81	1	-0.8476	24.6668	-12.7026	-46.0226	
502	81	2	0.4238	25.6668	-12.7026	-46.0226	
503	81	2	0.4238	24.3335	-11.7598	-46.0226	
504	82	1	-0.8476	-26.339	-9.3504	-46.0029	
505	82	2	0.4238	-25.339	-9.3504	-46.0029	
506	82	2	0.4238	-26.6724	-8.4076	-46.0029	
507	83	1	-0.8476	-22.9185	-9.3461	-46.022	
508	83	2	0.4238	-21.9185	-9.3461	-46.022	
509	83	2	0.4238	-23.2518	-8.4033	-46.022	
510	84	1	-0.8476	-19.5887	-9.3191	-46.027	
511	84	2	0.4238	-18.5887	-9.3191	-46.027	
512	84	2	0.4238	-19.922	-8.3763	-46.027	
513	85	1	-0.8476	-16.1095	-9.3327	-45.9512	
514	85	2	0.4238	-15.1095	-9.3327	-45.9512	
515	85	2	0.4238	-16.4428	-8.3899	-45.9512	
516	86	1	-0.8476	-12.7359	-9.307	-46.0441	
517	86	2	0.4238	-11.7359	-9.307	-46.0441	
518	86	2	0.4238	-13.0692	-8.3642	-46.0441	
519	87	1	-0.8476	-9.308	-9.3184	-45.989	
520	87	2	0.4238	-8.308	-9.3184	-45.989	
521	87	2	0.4238	-9.6413	-8.3756	-45.989	
522	88	1	-0.8476	-5.9543	-9.3425	-46.034	
523	88	2	0.4238	-4.9543	-9.3425	-46.034	
524	88	2	0.4238	-6.2876	-8.3997	-46.034	
525	89	1	-0.8476	-2.5559	-9.322	-46.0174	
526	89	2	0.4238	-1.5559	-9.322	-46.0174	
527	89	2	0.4238	-2.8892	-8.3792	-46.0174	
528	90	1	-0.8476	0.80377	-9.3103	-46.0277	
529	90	2	0.4238	1.8038	-9.3103	-46.0277	
530	90	2	0.4238	0.47046	-8.3675	-46.0277	
531	91	1	-0.8476	4.291	-9.3803	-46.0192	
532	91	2	0.4238	5.291	-9.3803	-46.0192	
533	91	2	0.4238	3.9577	-8.4375	-46.0192	
534	92	1	-0.8476	7.6343	-9.3485	-45.9867	
535	92	2	0.4238	8.6343	-9.3485	-45.9867	
536	92	2	0.4238	7.301	-8.4057	-45.9867	
537	93	1	-0.8476	11.039	-9.3944	-46.0292	
538	93	2	0.4238	12.039	-9.3944	-46.0292	
539	93	2	0.4238	10.7057	-8.4516	-46.0292	
540	94	1	-0.8476	14.4852	-9.3798	-46.0208	
541	94	2	0.4238	15.4852	-9.3798	-46.0208	
542	94	2	0.4238	14.1519	-8.437	-46.0208	
543	95	1	-0.8476	17.8102	-9.3252	-46.0455	
544	95	2	0.4238	18.8102	-9.3252	-46.0455	
545	95	2	0.4238	17.4769	-8.3824	-46.0455	
546	96	1	-0.8476	21.2043	-9.3407	-46.0473	
547	96	2	0.4238	22.2043	-9.3407	-46.0473	
548	96	2	0.4238	20.871	-8.3979	-46.0473	
549	97	1	-0.8476	24.679	-9.3475	-45.9601	
550	97	2	0.4238	25.679	-9.3475	-45.9601	
551	97	2	0.4238	24.3457	-8.4047	-45.9601	
552	98	1	-0.8476	-26.3874	-5.9144	-45.9717	
553	98	2	0.4238	-25.3874	-5.9144	-45.9717	
554	98	2	0.4238	-26.7207	-4.9716	-45.9717	
555	99	1	-0.8476	-22.9959	-5.9965	-45.9775	
556	99	2	0.4238	-21.9959	-5.9965	-45.9775	
557	99	2	0.4238	-23.3292	-5.0537	-45.9775	
558	100	1	-0.8476	-19.5522	-5.9663	-46.016	
559	100	2	0.4238	-18.5522	-5.9663	-46.016	
560	100	2	0.4238	-19.8855	-5.0235	-46.016	
561	101	1	-0.8476	-16.1016	-5.9114	-45.9519	
562	101	2	0.4238	-15.1016	-5.9114	-45.9519	
563	101	2	0.4238	-16.4349	-4.9686	-45.9519	
564	102	1	-0.8476	-12.722	-5.9834	-45.9849	
565	102	2	0.4238	-11.722	-5.9834	-45.9849	
566	102	2	0.4238	-13.0553	-5.0406	-45.9849	
567	103	1	-0.8476	-9.303	-5.9681	-45.9788	
568	103	2	0.4238	-8.303	-5.9681	-45.9788	
569	103	2	0.4238	-9.6363	-5.0253	-45.9788	
570	104	1	-0.8476	-5.9294	-5.9654	-45.9945	
571	104	2	0.4238	-4.9294	-5.9654	-45.9945	
572	104	2	0.4238	-6.2627	-5.0226	-45.9945	
573	105	1	-0.8476	-2.5416	-5.937	-45.9782	
574	105	2	0.4238	-1.5416	-5.937	-45.9782	
575	105	2	0.4238	-2.8749	-4.9942	-45.9782	
576	106	1	-0.8476	0.81323	-5.9599	-46.0098	
577	106	2	0.4238	1.8132	-5.9599	-46.0098	
578	106	2	0.4238	0.47992	-5.0171	-46.0098	
579	107	1	-0.8476	4.216	-5.9178	-46.0063	
580	107	2	0.4238	5.216	-5.9178	-46.0063	
581	107	2	0.4238	3.8827	-4.975	-46.0063	
582	108	1	-0.8476	7.694	-5.9254	-46.045	
583	108	2	0.4238	8.694	-5.9254	-46.045	
584	108	2	0.4238	7.3607	-4.9826	-46.045	
585	109	1	-0.8476	11.0797	-5.9896	-46.0113	
586	109	2	0.4238	12.0797	-5.9896	-46.0113	
587	109	2	0.4238	10.7464	-5.0468	-46.0113	
588	110	1	-0.8476	14.4302	-5.9748	-46.0366	
589	110	2	0.4238	15.4302	-5.9748	-46.0366	
590	110	2	0.4238	14.0969	-5.032	-46.0366	
591	111	1	-0.8476	17.8529	-5.9606	-46.0178	
592	111	2	0.4238	18.8529	-5.9606	-46.0178	
593	111	2	0.4238	17.5196	-5.0178	-46.0178	
594	112	1	-0.8476	21.2659	-5.9792	-46.017	
595	112	2	0.4238	22.2659	-5.9792	-46.017	
596	112	2	0.4238	20.9326	-5.0364	-46.017	
597	113	1	-0.8476	24.6874	-5.9235	-46.0456	
598	113	2	0.4238	25.6874	-5.9235	-46.0456	
599	113	2	0.4238	24.3541	-4.9807	-46.0456	
600	114	1	-0.8476	-26.3729	-2.5077	-46.0436	
601	114	2	0.4238	-25.3729	-2.5077	-46.0436	
602	114	2	0.4238	-26.7062	-1.5649	-46.0436	
603	115	1	-0.8476	-22.9778	-2.5011	-46.0322	
604	115	2	0.4238	-21.9778	-2.5011	-46.0322	
605	115	2	0.4238	-23.3111	-1.5583	-46.0322	
606	116	1	-0.8476	-19.5867	-2.5219	-46.049	
607	116	2	0.4238	-18.5867	-2.5219	-46.049	
608	116	2	0.4238	-19.92	-1.5791	-46.049	
609	117	1	-0.8476	-16.144	-2.5578	-45.9631	
610	117	2	0.4238	-15.144	-2.5578	-45.9631	
611	117	2	0.4238	-16.4773	-1.615	-45.9631	
612	118	1	-0.8476	-12.729	-2.5832	-46.0434	
613	118	2	0.4238	-11.729	-2.5832	-46.0434	
614	118	2	0.4238	-13.0623	-1.6404	-46.0434	
615	119	1	-0.8476	-9.331	-2.513	-45.9662	
616	119	2	0.4238	-8.331	-2.513	-45.9662	
617	119	2	0.4238	-9.6643	-1.5702	-45.9662	
618	120	1	-0.8476	-5.9732	-2.5854	-46.0115	
619	120	2	0.4238	-4.9732	-2.5854	-46.0115	
620	120	2	0.4238	-6.3065	-1.6426	-46.0115	
621	121	1	-0.8476	-2.579	-2.5303	-46.0002	
622	121	2	0.4238	-1.579	-2.5303	-46.0002	
623	121	2	0.4238	-2.9123	-1.5875	-46.0002	
624	122	1	-0.8476	0.89436	-2.5438	-45.9882	
625	122	2	0.4238	1.8944	-2.5438	-45.9882	
626	122	2	0.4238	0.56105	-1.601	-45.9882	
627	123	1	-0.8476	4.2977	-2.5482	-46.0484	
628	123	2	0.4238	5.2977	-2.5482	-46.0484	
629	123	2	0.4238	3.9644	-1.6054	-46.0484	
630	124	1	-0.8476	7.6274	-2.5479	-46.0104	
631	124	2	0.4238	8.6274	-2.5479	-46.0104	
632	124	2	0.4238	7.2941	-1.6051	-46.0104	
633	125	1	-0.8476	11.0539	-2.549	-46.0196	
634	125	2	0.4238	12.0539	-2.549	-46.0196	
635	125	2	0.4238	10.7206	-1.6062	-46.0196	
636	126	1	-0.8476	14.4906	-2.528	-46.0448	
637	126	2	0.4238	15.4906	-2.528	-46.0448	
638	126	2	0.4238	14.1573	-1.5852	-46.0448	
639	127	1	-0.8476	17.8676	-2.5688	-45.977	
640	127	2	0.4238	18.8676	-2.5688	-45.977	
641	127	2	0.4238	17.5343	-1.626	-45.977	
642	128	1	-0.8476	21.2947	-2.5585	-46.0174	
643	128	2	0.4238	22.2947	-2.5585	-46.0174	
644	128	2	0.4238	20.9614	-1.6157	-46.0174	
645	129	1	-0.8476	24.627	-2.5633	-45.9506	
646	129	2	0.4238	25.627	-2.5633	-45.9506	
647	129	2	0.4238	24.2937	-1.6205	-45.9506	
648	130	1	-0.8476	-26.3538	0.88355	-45.9563	
649	130	2	0.4238	-25.3538	0.88355	-45.9563	
650	130	2	0.4238	-26.6871	1.8263	-45.9563	
651	131	1	-0.8476	-22.9314	0.89787	-46.0108	
652	131	2	0.4238	-21.9314	0.89787	-46.0108	
653	131	2	0.4238	-23.2647	1.8407	-46.0108	
654	132	1	-0.8476	-19.5223	0.83826	-46.0171	
655	132	2	0.4238	-18.5223	0.83826	-46.0171	
656	132	2	0.4238	-19.8556	1.7811	-46.0171	
657	133	1	-0.8476	-16.1267	0.85819	-46.0022	
658	133	2	0.4238	-15.1267	0.85819	-46.0022	
659	133	2	0.4238	-16.4601	1.801	-46.0022	
660	134	1	-0.8476	-12.7873	0.83054	-46.0279	
661	134	2	0.4238	-11.7873	0.83054	-46.0279	
662	134	2	0.4238	-13.1206	1.7733	-46.0279	
663	135	1	-0.8476	-9.337	0.81875	-45.9576	
664	135	2	0.4238	-8.337	0.81875	-45.9576	
665	135	2	0.4238	-9.6703	1.7615	-45.9576	
666	136	1	-0.8476	-5.9711	0.87702	-45.9573	
667	136	2	0.4238	-4.9711	0.87702	-45.9573	
668	136	2	0.4238	-6.3044	1.8198	-45.9573	
669	137	1	-0.8476	-2.5859	0.89776	-46.0259	
670	137	2	0.4238	-1.5859	0.89776	-46.0259	
671	137	2	0.4238	-2.9192	1.8406	-46.0259	
672	138	1	-0.8476	0.87123	0.81612	-45.9638	
673	138	2	0.4238	1.8712	0.81612	-45.9638	
674	138	2	0.4238	0.53792	1.7589	-45.9638	
675	139	1	-0.8476	4.2097	0.85502	-45.9518	
676	139	2	0.4238	5.2097	0.85502	-45.9518	
677	139	2	0.4238	3.8763	1.7978	-45.9518	
678	140	1	-0.8476	7.6958	0.84802	-46	
679	140	2	0.4238	8.6958	0.84802	-46	
680	140	2	0.4238	7.3625	1.7908	-46	
681	141	1	-0.8476	11.0599	0.8084	-46.0075	
682	141	2	0.4238	12.0599	0.8084	-46.0075	
683	141	2	0.4238	10.7266	1.7512	-46.0075	
684	142	1	-0.8476	14.4346	0.83096	-45.9769	
685	142	2	0.4238	15.4346	0.83096	-45.9769	
686	142	2	0.4238	14.1013	1.7738	-45.9769	
687	143	1	-0.8476	17.8879	0.84841	-45.9838	
688	143	2	0.4238	18.8879	0.84841	-45.9838	
689	143	2	0.4238	17.5546	1.7912	-45.9838	
690	144	1	-0.8476	21.2184	0.80542	-45.983	
691	144	2	0.4238	22.2184	0.80542	-45.983	
692	144	2	0.4238	20.8851	1.7482	-45.983	
693	145	1	-0.8476	24.6414	0.8569	-46.044	
694	145	2	0.4238	25.6414	0.8569	-46.044	
695	145	2	0.4238	24.3081	1.7997	-46.044	
696	146	1	-0.8476	-26.389	4.2704	-46.0112	
697	146	2	0.4238	-25.389	4.2704	-46.0112	
698	146	2	0.4238	-26.7223	5.2132	-46.0112	
699	147	1	-0.8476	-22.9709	4.2088	-46.043	
700	147	2	0.4238	-21.9709	4.2088	-46.043	
701	147	2	0.4238	-23.3042	5.1516	-46.043	
702	148	1	-0.8476	-19.5544	4.2061	-45.9896	
703	148	2	0.4238	-18.5544	4.2061	-45.9896	
704	148	2	0.4238	-19.8877	5.1489	-45.9896	
705	149	1	-0.8476	-16.1412	4.2368	-46.0195	
706	149	2	0.4238	-15.1412	4.2368	-46.0195	
707	149	2	0.4238	-16.4745	5.1796	-46.0195	
708	150	1	-0.8476	-12.7518	4.2777	-46.0248	
709	150	2	0.4238	-11.7518	4.2777	-46.0248	
710	150	2	0.4238	-13.0851	5.2205	-46.0248	
711	151	1	-0.8476	-9.3888	4.2312	-46.0134	
712	151	2	0.4238	-8.3888	4.2312	-46.0134	
713	151	2	0.4238	-9.7221	5.174	-46.0134	
714	152	1	-0.8476	-5.9451	4.2921	-46.0066	
715	152	2	0.4238	-4.9451	4.2921	-46.0066	
716	152	2	0.4238	-6.2784	5.2349	-46.0066	
717	153	1	-0.8476	-2.5212	4.2889	-46.0271	
718	153	2	0.4238	-1.5212	4.2889	-46.0271	
719	153	2	0.4238	-2.8545	5.2317	-46.0271	
720	154	1	-0.8476	0.88795	4.2853	-45.9716	
721	154	2	0.4238	1.8879	4.2853	-45.9716	
722	154	2	0.4238	0.55464	5.2281	-45.9716	
723	155	1	-0.8476	4.2133	4.2489	-46.0273	
724	155	2	0.4238	5.2133	4.2489	-46.0273	
725	155	2	0.4238	3.8799	5.1917	-46.0273	
726	156	1	-0.8476	7.6712	4.224	-46.019	
727	156	2	0.4238	8.6712	4.224	-46.019	
728	156	2	0.4238	7.3379	5.1668	-46.019	
729	157	1	-0.8476	11.0312	4.2924	-45.9625	
730	157	2	0.4238	12.0312	4.2924	-45.9625	
731	157	2	0.4238	10.6979	5.2352	-45.9625	
732	158	1	-0.8476	14.4791	4.2065	-46.0294	
733	158	2	0.4238	15.4791	4.2065	-46.0294	
734	158	2	0.4238	14.1458	5.1493	-46.0294	
735	159	1	-0.8476	17.867	4.2619	-45.9662	
736	159	2	0.4238	18.867	4.2619	-45.9662	
737	159	2	0.4238	17.5337	5.2047	-45.9662	
738	160	1	-0.8476	21.297	4.2452	-45.9705	
739	160	2	0.4238	22.297	4.2452	-45.9705	
740	160	2	0.4238	20.9637	5.188	-45.9705	
741	161	1	-0.8476	24.6219	4.2802	-46.0323	
742	161	2	0.4238	25.6219	4.2802	-46.0323	
743	161	2	0.4238	24.2886	5.223	-46.0323	
744	162	1	-0.8476	-26.3962	7.6276	-45.9565	
745	162	2	0.4238	-25.3962	7.6276	-45.9565	
746	162	2	0.4238	-26.7295	8.5704	-45.9565	
747	163	1	-0.8476	-22.9834	7.6466	-45.9603	
748	163	2	0.4238	-21.9834	7.6466	-45.9603	
749	163	2	0.4238	-23.3167	8.5894	-45.9603	
750	164	1	-0.8476	-19.5199	7.6083	-46.027	
751	164	2	0.4238	-18.5199	7.6083	-46.027	
752	164	2	0.4238	-19.8532	8.5511	-46.027	
753	165	1	-0.8476	-16.1783	7.6804	-45.9976	
754	165	2	0.4238	-15.1783	7.6804	-45.9976	
755	165	2	0.4238	-16.5116	8.6232	-45.9976	
756	166	1	-0.8476	-12.7948	7.6296	-46.0137	
757	166	2	0.4238	-11.7948	7.6296	-46.0137	
758	166	2	0.4238	-13.1281	8.5724	-46.0137	
759	167	1	-0.8476	-9.334	7.6259	-45.9658	
760	167	2	0.4238	-8.334	7.6259	-45.9658	
761	167	2	0.4238	-9.6673	8.5687	-45.9658	
762	168	1	-0.8476	-5.9758	7.6622	-46.0114	
763	168	2	0.4238	-4.9758	7.6622	-46.0114	
764	168	2	0.4238	-6.3091	8.605	-46.0114	