# System

13763 atoms
9330 bonds
5113 angles
1193 dihedrals
147 impropers

15 atom types
8 bond types
14 angle types
15 dihedral types
1 improper types
extra bond per atom 2
extra angle per atom 1
extra special per atom 2
-27.2         27.2 xlo xhi
-27.2         27.2 ylo yhi
-50  50 zlo zhi

Atoms

1	1	3	-0.115	0	-9.1962	-19.802	
2	1	3	-0.115	0	-9.9036	-18.5767	
3	1	3	0	0	-9.1962	-17.3515	
4	1	3	-0.115	0	-9.9036	-16.1262	
5	1	3	0	0	-9.1962	-14.901	
6	1	3	-0.115	0	-9.9036	-13.6757	
7	1	3	0	0	-9.1962	-12.4505	
8	1	3	-0.115	0	-9.9036	-11.2252	
9	1	3	0	0	-9.1962	-10	
10	1	13	0.15	0	-9.9036	-8.7747	
11	1	3	0	0	-9.1962	-7.5495	
12	1	3	-0.115	0	-9.9036	-6.3242	
13	1	3	0	0	-9.1962	-5.099	
14	1	13	0.15	0	-9.9036	-3.8737	
15	1	3	0	0	-9.1962	-2.6485	
16	1	3	-0.115	0	-9.9036	-1.4232	
17	1	3	-0.115	0	-9.1962	-0.19802	
18	1	13	0.15	0	-7.7814	-19.802	
19	1	3	0	0	-7.074	-18.5767	
20	1	3	0	0	-7.7814	-17.3515	
21	1	3	0	0	-7.074	-16.1262	
22	1	3	0	0	-7.7814	-14.901	
23	1	3	0	0	-7.074	-13.6757	
24	1	3	0	0	-7.7814	-12.4505	
25	1	3	0	0	-7.074	-11.2252	
26	1	5	0.265	0	-7.7814	-10	
27	1	5	0.265	0	-7.074	-8.7747	
28	1	3	0	0	-7.7814	-7.5495	
29	1	3	0	0	-7.074	-6.3242	
30	1	3	0	0	-7.7814	-5.099	
31	1	3	0	0	-7.074	-3.8737	
32	1	3	0	0	-7.7814	-2.6485	
33	1	3	0	0	-7.074	-1.4232	
34	1	3	-0.115	0	-7.7814	-0.19802	
35	1	13	0.15	0	-4.9518	-19.802	
36	1	5	0.265	0	-5.6592	-18.5767	
37	1	5	0.265	0	-4.9518	-17.3515	
38	1	5	0.265	0	-5.6592	-16.1262	
39	1	5	0.265	0	-4.9518	-14.901	
40	1	3	0	0	-5.6592	-13.6757	
41	1	5	0.265	0	-4.9518	-12.4505	
42	1	3	0	0	-5.6592	-11.2252	
43	1	5	0.265	0	-4.9518	-10	
44	1	5	0.265	0	-5.6592	-8.7747	
45	1	3	0	0	-4.9518	-7.5495	
46	1	3	0	0	-5.6592	-6.3242	
47	1	3	0	0	-4.9518	-5.099	
48	1	3	0	0	-5.6592	-3.8737	
49	1	3	0	0	-4.9518	-2.6485	
50	1	3	0	0	-5.6592	-1.4232	
51	1	13	0.15	0	-4.9518	-0.19802	
52	1	3	-0.115	0	-3.537	-19.802	
53	1	3	0	0	-2.8296	-18.5767	
54	1	3	0	0	-3.537	-17.3515	
55	1	3	0	0	-2.8296	-16.1262	
56	1	5	0.265	0	-3.537	-14.901	
57	1	5	0.265	0	-2.8296	-13.6757	
58	1	5	0.265	0	-3.537	-12.4505	
59	1	5	0.265	0	-2.8296	-11.2252	
60	1	3	0	0	-3.537	-10	
61	1	3	0	0	-2.8296	-8.7747	
62	1	3	0	0	-3.537	-7.5495	
63	1	3	0	0	-2.8296	-6.3242	
64	1	3	0	0	-3.537	-5.099	
65	1	3	0	0	-2.8296	-3.8737	
66	1	3	0	0	-3.537	-2.6485	
67	1	3	0	0	-2.8296	-1.4232	
68	1	3	-0.115	0	-3.537	-0.19802	
69	1	3	-0.115	0	-0.7074	-19.802	
70	1	3	0	0	-1.4148	-18.5767	
71	1	3	0	0	-0.7074	-17.3515	
72	1	5	0.265	0	-1.4148	-16.1262	
73	1	5	0.265	0	-0.7074	-14.901	
74	1	3	0	0	-1.4148	-13.6757	
75	1	5	0.265	0	-0.7074	-12.4505	
76	1	3	0	0	-1.4148	-11.2252	
77	1	3	0	0	-0.7074	-10	
78	1	3	0	0	-1.4148	-8.7747	
79	1	3	0	0	-0.7074	-7.5495	
80	1	3	0	0	-1.4148	-6.3242	
81	1	3	0	0	-0.7074	-5.099	
82	1	3	0	0	-1.4148	-3.8737	
83	1	3	0	0	-0.7074	-2.6485	
84	1	3	0	0	-1.4148	-1.4232	
85	1	13	0.15	0	-0.7074	-0.19802	
86	1	3	-0.115	0	0.7074	-19.802	
87	1	3	0	0	1.4148	-18.5767	
88	1	5	0.265	0	0.7074	-17.3515	
89	1	5	0.265	0	1.4148	-16.1262	
90	1	3	0	0	0.7074	-14.901	
91	1	3	0	0	1.4148	-13.6757	
92	1	5	0.265	0	0.7074	-12.4505	
93	1	3	0	0	1.4148	-11.2252	
94	1	3	0	0	0.7074	-10	
95	1	3	0	0	1.4148	-8.7747	
96	1	3	0	0	0.7074	-7.5495	
97	1	3	0	0	1.4148	-6.3242	
98	1	3	0	0	0.7074	-5.099	
99	1	3	0	0	1.4148	-3.8737	
100	1	3	0	0	0.7074	-2.6485	
101	1	3	0	0	1.4148	-1.4232	
102	1	3	-0.115	0	0.7074	-0.19802	
103	1	13	0.15	0	3.537	-19.802	
104	1	3	0	0	2.8296	-18.5767	
105	1	3	0	0	3.537	-17.3515	
106	1	3	0	0	2.8296	-16.1262	
107	1	5	0.265	0	3.537	-14.901	
108	1	5	0.265	0	2.8296	-13.6757	
109	1	3	0	0	3.537	-12.4505	
110	1	3	0	0	2.8296	-11.2252	
111	1	3	0	0	3.537	-10	
112	1	3	0	0	2.8296	-8.7747	
113	1	3	0	0	3.537	-7.5495	
114	1	3	0	0	2.8296	-6.3242	
115	1	3	0	0	3.537	-5.099	
116	1	3	0	0	2.8296	-3.8737	
117	1	3	0	0	3.537	-2.6485	
118	1	3	0	0	2.8296	-1.4232	
119	1	3	-0.115	0	3.537	-0.19802	
120	1	13	0.15	0	4.9518	-19.802	
121	1	3	0	0	5.6592	-18.5767	
122	1	3	0	0	4.9518	-17.3515	
123	1	3	0	0	5.6592	-16.1262	
124	1	3	0	0	4.9518	-14.901	
125	1	5	0.265	0	5.6592	-13.6757	
126	1	5	0.265	0	4.9518	-12.4505	
127	1	3	0	0	5.6592	-11.2252	
128	1	3	0	0	4.9518	-10	
129	1	3	0	0	5.6592	-8.7747	
130	1	3	0	0	4.9518	-7.5495	
131	1	3	0	0	5.6592	-6.3242	
132	1	3	0	0	4.9518	-5.099	
133	1	3	0	0	5.6592	-3.8737	
134	1	3	0	0	4.9518	-2.6485	
135	1	3	0	0	5.6592	-1.4232	
136	1	3	-0.115	0	4.9518	-0.19802	
137	1	3	-0.115	0	7.7814	-19.802	
138	1	3	0	0	7.074	-18.5767	
139	1	3	0	0	7.7814	-17.3515	
140	1	3	0	0	7.074	-16.1262	
141	1	3	0	0	7.7814	-14.901	
142	1	3	0	0	7.074	-13.6757	
143	1	3	0	0	7.7814	-12.4505	
144	1	3	0	0	7.074	-11.2252	
145	1	3	0	0	7.7814	-10	
146	1	3	0	0	7.074	-8.7747	
147	1	3	0	0	7.7814	-7.5495	
148	1	3	0	0	7.074	-6.3242	
149	1	3	0	0	7.7814	-5.099	
150	1	3	0	0	7.074	-3.8737	
151	1	3	0	0	7.7814	-2.6485	
152	1	3	0	0	7.074	-1.4232	
153	1	3	-0.115	0	7.7814	-0.19802	
154	1	3	-0.115	0	9.1962	-19.802	
155	1	3	-0.115	0	9.9036	-18.5767	
156	1	3	0	0	9.1962	-17.3515	
157	1	3	-0.115	0	9.9036	-16.1262	
158	1	3	0	0	9.1962	-14.901	
159	1	3	-0.115	0	9.9036	-13.6757	
160	1	3	0	0	9.1962	-12.4505	
161	1	3	-0.115	0	9.9036	-11.2252	
162	1	3	0	0	9.1962	-10	
163	1	3	-0.115	0	9.9036	-8.7747	
164	1	3	0	0	9.1962	-7.5495	
165	1	13	0.15	0	9.9036	-6.3242	
166	1	3	0	0	9.1962	-5.099	
167	1	13	0.15	0	9.9036	-3.8737	
168	1	3	0	0	9.1962	-2.6485	
169	1	3	-0.115	0	9.9036	-1.4232	
170	1	13	0.15	0	9.1962	-0.19802	
171	1	4	0.115	0	-10.9806	-18.5767	
172	1	4	0.115	0	-10.9806	-16.1262	
173	1	4	0.115	0	-10.9806	-13.6757	
174	1	4	0.115	0	-10.9806	-11.2252	
175	1	9	-0.585	0	-11.3036	-8.7747	
176	1	4	0.115	0	-10.9806	-6.3242	
177	1	9	-0.585	0	-11.3036	-3.8737	
178	1	4	0.115	0	-10.9806	-1.4232	
179	1	4	0.115	0	10.9806	-18.5767	
180	1	4	0.115	0	10.9806	-16.1262	
181	1	4	0.115	0	10.9806	-13.6757	
182	1	4	0.115	0	10.9806	-11.2252	
183	1	4	0.115	0	10.9806	-8.7747	
184	1	9	-0.585	0	11.3036	-6.3242	
185	1	9	-0.585	0	11.3036	-3.8737	
186	1	4	0.115	0	10.9806	-1.4232	
187	1	4	0.115	0	-9.7347	-20.7347	
188	1	9	-0.585	0	-7.0814	-21.0144	
189	1	4	0.115	0	-9.7347	0.73478	
190	1	4	0.115	0	-7.2429	0.73478	
191	1	9	-0.585	0	-5.6518	-21.0144	
192	1	4	0.115	0	-2.9985	-20.7347	
193	1	9	-0.585	0	-5.6518	1.0145	
194	1	4	0.115	0	-2.9985	0.73478	
195	1	4	0.115	0	-1.2459	-20.7347	
196	1	4	0.115	0	1.2459	-20.7347	
197	1	9	-0.585	0	-1.4074	1.0145	
198	1	4	0.115	0	1.2459	0.73478	
199	1	9	-0.585	0	2.837	-21.0144	
200	1	9	-0.585	0	5.6518	-21.0144	
201	1	4	0.115	0	2.9985	0.73478	
202	1	4	0.115	0	5.4903	0.73478	
203	1	4	0.115	0	7.2429	-20.7347	
204	1	4	0.115	0	9.7347	-20.7347	
205	1	4	0.115	0	7.2429	0.73478	
206	1	9	-0.585	0	9.8962	1.0145	
207	1	7	0.435	-0.7	-12.0036	-8.7747	
208	1	7	0.435	-0.7	-12.0036	-3.8737	
209	1	7	0.435	-0.7	12.0036	-6.3242	
210	1	7	0.435	0.7	12.0036	-3.8737	
211	1	7	0.435	-0.7	-6.7314	-21.6207	
212	1	7	0.435	-0.7	-6.0018	-21.6207	
213	1	7	0.435	-0.7	-6.0018	1.6207	
214	1	7	0.435	-0.7	-1.7574	1.6207	
215	1	7	0.435	0.7	2.487	-21.6207	
216	1	7	0.435	0.7	6.0018	-21.6207	
217	1	7	0.435	0.7	10.2462	1.6207	
218	1	6	-0.683	1.4	-4.9518	-17.3515	
219	1	7	0.418	2.4	-4.9518	-17.3515	
220	1	6	-0.683	-1.4	-5.6592	-18.5767	
221	1	7	0.418	-2.4	-5.6592	-18.5767	
222	1	6	-0.683	1.4	-5.6592	-16.1262	
223	1	7	0.418	2.4	-5.6592	-16.1262	
224	1	6	-0.683	-1.4	-1.4148	-16.1262	
225	1	7	0.418	-2.4	-1.4148	-16.1262	
226	1	6	-0.683	-1.4	-4.9518	-14.901	
227	1	7	0.418	-2.4	-4.9518	-14.901	
228	1	6	-0.683	1.4	-2.8296	-13.6757	
229	1	7	0.418	2.4	-2.8296	-13.6757	
230	1	6	-0.683	1.4	0.7074	-17.3515	
231	1	7	0.418	2.4	0.7074	-17.3515	
232	1	6	-0.683	-1.4	-0.7074	-14.901	
233	1	7	0.418	-2.4	-0.7074	-14.901	
234	1	6	-0.683	1.4	0.7074	-12.4505	
235	1	7	0.418	2.4	0.7074	-12.4505	
236	1	6	-0.683	-1.4	1.4148	-16.1262	
237	1	7	0.418	-2.4	1.4148	-16.1262	
238	1	6	-0.683	1.4	-0.7074	-12.4505	
239	1	7	0.418	2.4	-0.7074	-12.4505	
240	1	6	-0.683	-1.4	-3.537	-12.4505	
241	1	7	0.418	-2.4	-3.537	-12.4505	
242	1	6	-0.683	1.4	-4.9518	-12.4505	
243	1	7	0.418	2.4	-4.9518	-12.4505	
244	1	6	-0.683	-1.4	-4.9518	-10	
245	1	7	0.418	-2.4	-4.9518	-10	
246	1	6	-0.683	-1.4	-3.537	-14.901	
247	1	7	0.418	-2.4	-3.537	-14.901	
248	1	6	-0.683	-1.4	2.8296	-13.6757	
249	1	7	0.418	-2.4	2.8296	-13.6757	
250	1	6	-0.683	1.4	-7.7814	-10	
251	1	7	0.418	2.4	-7.7814	-10	
252	1	6	-0.683	1.4	3.537	-14.901	
253	1	7	0.418	2.4	3.537	-14.901	
254	1	6	-0.683	1.4	4.9518	-12.4505	
255	1	7	0.418	2.4	4.9518	-12.4505	
256	1	6	-0.683	-1.4	-7.074	-8.7747	
257	1	7	0.418	-2.4	-7.074	-8.7747	
258	1	6	-0.683	1.4	5.6592	-13.6757	
259	1	7	0.418	2.4	5.6592	-13.6757	
260	1	6	-0.683	1.4	-5.6592	-8.7747	
261	1	7	0.418	2.4	-5.6592	-8.7747	
262	1	6	-0.683	-1.4	-2.8296	-11.2252	
263	1	7	0.418	-2.4	-2.8296	-11.2252	
264	2	1	-0.8476	-26.3382	-26.3343	-45.966	
265	2	2	0.4238	-25.3382	-26.3343	-45.966	
266	2	2	0.4238	-26.6715	-25.3915	-45.966	
267	3	1	-0.8476	-22.9859	-26.3694	-45.9856	
268	3	2	0.4238	-21.9859	-26.3694	-45.9856	
269	3	2	0.4238	-23.3193	-25.4266	-45.9856	
270	4	1	-0.8476	-19.5899	-26.3043	-45.9636	
271	4	2	0.4238	-18.5899	-26.3043	-45.9636	
272	4	2	0.4238	-19.9232	-25.3615	-45.9636	
273	5	1	-0.8476	-16.1439	-26.3385	-46.0092	
274	5	2	0.4238	-15.1439	-26.3385	-46.0092	
275	5	2	0.4238	-16.4772	-25.3957	-46.0092	
276	6	1	-0.8476	-12.7843	-26.3732	-46.0457	
277	6	2	0.4238	-11.7843	-26.3732	-46.0457	
278	6	2	0.4238	-13.1176	-25.4304	-46.0457	
279	7	1	-0.8476	-9.3153	-26.3698	-45.9924	
280	7	2	0.4238	-8.3153	-26.3698	-45.9924	
281	7	2	0.4238	-9.6487	-25.427	-45.9924	
282	8	1	-0.8476	-5.9766	-26.3271	-45.978	
283	8	2	0.4238	-4.9766	-26.3271	-45.978	
284	8	2	0.4238	-6.31	-25.3843	-45.978	
285	9	1	-0.8476	-2.5309	-26.3852	-45.9773	
286	9	2	0.4238	-1.5309	-26.3852	-45.9773	
287	9	2	0.4238	-2.8643	-25.4424	-45.9773	
288	10	1	-0.8476	0.81085	-26.3095	-45.9965	
289	10	2	0.4238	1.8109	-26.3095	-45.9965	
290	10	2	0.4238	0.47754	-25.3667	-45.9965	
291	11	1	-0.8476	4.2248	-26.3761	-45.9739	
292	11	2	0.4238	5.2248	-26.3761	-45.9739	
293	11	2	0.4238	3.8915	-25.4333	-45.9739	
294	12	1	-0.8476	7.6305	-26.3121	-46.0392	
295	12	2	0.4238	8.6305	-26.3121	-46.0392	
296	12	2	0.4238	7.2972	-25.3693	-46.0392	
297	13	1	-0.8476	11.0141	-26.3519	-45.9986	
298	13	2	0.4238	12.0141	-26.3519	-45.9986	
299	13	2	0.4238	10.6808	-25.4091	-45.9986	
300	14	1	-0.8476	14.4934	-26.3574	-46.0415	
301	14	2	0.4238	15.4934	-26.3574	-46.0415	
302	14	2	0.4238	14.1601	-25.4146	-46.0415	
303	15	1	-0.8476	17.8101	-26.394	-46.0006	
304	15	2	0.4238	18.8101	-26.394	-46.0006	
305	15	2	0.4238	17.4768	-25.4512	-46.0006	
306	16	1	-0.8476	21.2582	-26.3878	-46.025	
307	16	2	0.4238	22.2582	-26.3878	-46.025	
308	16	2	0.4238	20.9249	-25.445	-46.025	
309	17	1	-0.8476	24.6854	-26.3918	-45.9869	
310	17	2	0.4238	25.6854	-26.3918	-45.9869	
311	17	2	0.4238	24.3521	-25.449	-45.9869	
312	18	1	-0.8476	-26.318	-22.9171	-45.9614	
313	18	2	0.4238	-25.318	-22.9171	-45.9614	
314	18	2	0.4238	-26.6513	-21.9743	-45.9614	
315	19	1	-0.8476	-22.9205	-22.9753	-45.99	
316	19	2	0.4238	-21.9205	-22.9753	-45.99	
317	19	2	0.4238	-23.2539	-22.0325	-45.99	
318	20	1	-0.8476	-19.5949	-22.9356	-46.0064	
319	20	2	0.4238	-18.5949	-22.9356	-46.0064	
320	20	2	0.4238	-19.9282	-21.9928	-46.0064	
321	21	1	-0.8476	-16.1542	-22.9455	-46.0182	
322	21	2	0.4238	-15.1542	-22.9455	-46.0182	
323	21	2	0.4238	-16.4875	-22.0027	-46.0182	
324	22	1	-0.8476	-12.7304	-22.9148	-45.9543	
325	22	2	0.4238	-11.7304	-22.9148	-45.9543	
326	22	2	0.4238	-13.0637	-21.972	-45.9543	
327	23	1	-0.8476	-9.3746	-22.9419	-46.0292	
328	23	2	0.4238	-8.3746	-22.9419	-46.0292	
329	23	2	0.4238	-9.7079	-21.9991	-46.0292	
330	24	1	-0.8476	-5.9441	-22.9366	-45.9956	
331	24	2	0.4238	-4.9441	-22.9366	-45.9956	
332	24	2	0.4238	-6.2774	-21.9938	-45.9956	
333	25	1	-0.8476	-2.5474	-22.9893	-45.9668	
334	25	2	0.4238	-1.5474	-22.9893	-45.9668	
335	25	2	0.4238	-2.8807	-22.0465	-45.9668	
336	26	1	-0.8476	0.82906	-22.9038	-45.9762	
337	26	2	0.4238	1.8291	-22.9038	-45.9762	
338	26	2	0.4238	0.49575	-21.961	-45.9762	
339	27	1	-0.8476	4.2615	-22.9093	-45.9806	
340	27	2	0.4238	5.2615	-22.9093	-45.9806	
341	27	2	0.4238	3.9282	-21.9665	-45.9806	
342	28	1	-0.8476	7.6888	-22.9291	-45.9932	
343	28	2	0.4238	8.6888	-22.9291	-45.9932	
344	28	2	0.4238	7.3555	-21.9863	-45.9932	
345	29	1	-0.8476	11.0115	-22.9705	-45.9636	
346	29	2	0.4238	12.0115	-22.9705	-45.9636	
347	29	2	0.4238	10.6782	-22.0277	-45.9636	
348	30	1	-0.8476	14.4869	-22.9281	-45.9852	
349	30	2	0.4238	15.4869	-22.9281	-45.9852	
350	30	2	0.4238	14.1536	-21.9853	-45.9852	
351	31	1	-0.8476	17.8264	-22.9881	-45.9704	
352	31	2	0.4238	18.8264	-22.9881	-45.9704	
353	31	2	0.4238	17.4931	-22.0453	-45.9704	
354	32	1	-0.8476	21.2588	-22.9335	-46.011	
355	32	2	0.4238	22.2588	-22.9335	-46.011	
356	32	2	0.4238	20.9255	-21.9907	-46.011	
357	33	1	-0.8476	24.6935	-22.9804	-45.9828	
358	33	2	0.4238	25.6935	-22.9804	-45.9828	
359	33	2	0.4238	24.3602	-22.0376	-45.9828	
360	34	1	-0.8476	-26.372	-19.5505	-45.9645	
361	34	2	0.4238	-25.372	-19.5505	-45.9645	
362	34	2	0.4238	-26.7053	-18.6077	-45.9645	
363	35	1	-0.8476	-22.9683	-19.5317	-46.031	
364	35	2	0.4238	-21.9683	-19.5317	-46.031	
365	35	2	0.4238	-23.3016	-18.5889	-46.031	
366	36	1	-0.8476	-19.5113	-19.5606	-45.9502	
367	36	2	0.4238	-18.5113	-19.5606	-45.9502	
368	36	2	0.4238	-19.8446	-18.6178	-45.9502	
369	37	1	-0.8476	-16.1244	-19.5907	-46.0029	
370	37	2	0.4238	-15.1244	-19.5907	-46.0029	
371	37	2	0.4238	-16.4577	-18.6479	-46.0029	
372	38	1	-0.8476	-12.7435	-19.5379	-45.9569	
373	38	2	0.4238	-11.7435	-19.5379	-45.9569	
374	38	2	0.4238	-13.0768	-18.5951	-45.9569	
375	39	1	-0.8476	-9.3213	-19.5821	-46.0133	
376	39	2	0.4238	-8.3213	-19.5821	-46.0133	
377	39	2	0.4238	-9.6546	-18.6393	-46.0133	
378	40	1	-0.8476	-5.9272	-19.572	-46.0392	
379	40	2	0.4238	-4.9272	-19.572	-46.0392	
380	40	2	0.4238	-6.2605	-18.6292	-46.0392	
381	41	1	-0.8476	-2.589	-19.5633	-46.0371	
382	41	2	0.4238	-1.589	-19.5633	-46.0371	
383	41	2	0.4238	-2.9223	-18.6205	-46.0371	
384	42	1	-0.8476	0.80274	-19.5194	-45.9787	
385	42	2	0.4238	1.8027	-19.5194	-45.9787	
386	42	2	0.4238	0.46943	-18.5766	-45.9787	
387	43	1	-0.8476	4.22	-19.5262	-46.0171	
388	43	2	0.4238	5.22	-19.5262	-46.0171	
389	43	2	0.4238	3.8867	-18.5834	-46.0171	
390	44	1	-0.8476	7.6906	-19.5442	-46.008	
391	44	2	0.4238	8.6906	-19.5442	-46.008	
392	44	2	0.4238	7.3573	-18.6014	-46.008	
393	45	1	-0.8476	11.0817	-19.5584	-46.0042	
394	45	2	0.4238	12.0817	-19.5584	-46.0042	
395	45	2	0.4238	10.7484	-18.6156	-46.0042	
396	46	1	-0.8476	14.4048	-19.542	-46.0414	
397	46	2	0.4238	15.4048	-19.542	-46.0414	
398	46	2	0.4238	14.0715	-18.5992	-46.0414	
399	47	1	-0.8476	17.8577	-19.5695	-46.0476	
400	47	2	0.4238	18.8577	-19.5695	-46.0476	
401	47	2	0.4238	17.5244	-18.6267	-46.0476	
402	48	1	-0.8476	21.2841	-19.5382	-45.9917	
403	48	2	0.4238	22.2841	-19.5382	-45.9917	
404	48	2	0.4238	20.9508	-18.5954	-45.9917	
405	49	1	-0.8476	24.6035	-19.533	-45.9847	
406	49	2	0.4238	25.6035	-19.533	-45.9847	
407	49	2	0.4238	24.2702	-18.5902	-45.9847	
408	50	1	-0.8476	-26.3856	-16.1308	-45.9648	
409	50	2	0.4238	-25.3856	-16.1308	-45.9648	
410	50	2	0.4238	-26.7189	-15.188	-45.9648	
411	51	1	-0.8476	-22.9764	-16.1503	-45.9867	
412	51	2	0.4238	-21.9764	-16.1503	-45.9867	
413	51	2	0.4238	-23.3097	-15.2075	-45.9867	
414	52	1	-0.8476	-19.5212	-16.1711	-45.9583	
415	52	2	0.4238	-18.5212	-16.1711	-45.9583	
416	52	2	0.4238	-19.8545	-15.2283	-45.9583	
417	53	1	-0.8476	-16.1999	-16.1737	-45.971	
418	53	2	0.4238	-15.1999	-16.1737	-45.971	
419	53	2	0.4238	-16.5332	-15.2309	-45.971	
420	54	1	-0.8476	-12.7895	-16.1903	-46.0482	
421	54	2	0.4238	-11.7895	-16.1903	-46.0482	
422	54	2	0.4238	-13.1228	-15.2475	-46.0482	
423	55	1	-0.8476	-9.3088	-16.1224	-46.0331	
424	55	2	0.4238	-8.3088	-16.1224	-46.0331	
425	55	2	0.4238	-9.6421	-15.1796	-46.0331	
426	56	1	-0.8476	-5.9002	-16.1836	-45.9838	
427	56	2	0.4238	-4.9002	-16.1836	-45.9838	
428	56	2	0.4238	-6.2335	-15.2408	-45.9838	
429	57	1	-0.8476	-2.5127	-16.1937	-45.981	
430	57	2	0.4238	-1.5127	-16.1937	-45.981	
431	57	2	0.4238	-2.846	-15.2509	-45.981	
432	58	1	-0.8476	0.86275	-16.1572	-45.9672	
433	58	2	0.4238	1.8628	-16.1572	-45.9672	
434	58	2	0.4238	0.52944	-15.2144	-45.9672	
435	59	1	-0.8476	4.2999	-16.1535	-45.9928	
436	59	2	0.4238	5.2999	-16.1535	-45.9928	
437	59	2	0.4238	3.9666	-15.2107	-45.9928	
438	60	1	-0.8476	7.6632	-16.1986	-46.0189	
439	60	2	0.4238	8.6632	-16.1986	-46.0189	
440	60	2	0.4238	7.3299	-15.2558	-46.0189	
441	61	1	-0.8476	11.0147	-16.1955	-46.0477	
442	61	2	0.4238	12.0147	-16.1955	-46.0477	
443	61	2	0.4238	10.6814	-15.2527	-46.0477	
444	62	1	-0.8476	14.4542	-16.1199	-45.9706	
445	62	2	0.4238	15.4542	-16.1199	-45.9706	
446	62	2	0.4238	14.1209	-15.1771	-45.9706	
447	63	1	-0.8476	17.8543	-16.1968	-45.987	
448	63	2	0.4238	18.8543	-16.1968	-45.987	
449	63	2	0.4238	17.521	-15.254	-45.987	
450	64	1	-0.8476	21.2895	-16.1671	-46.0269	
451	64	2	0.4238	22.2895	-16.1671	-46.0269	
452	64	2	0.4238	20.9562	-15.2243	-46.0269	
453	65	1	-0.8476	24.6761	-16.199	-45.9654	
454	65	2	0.4238	25.6761	-16.199	-45.9654	
455	65	2	0.4238	24.3428	-15.2562	-45.9654	
456	66	1	-0.8476	-26.3067	-12.7213	-45.9596	
457	66	2	0.4238	-25.3067	-12.7213	-45.9596	
458	66	2	0.4238	-26.64	-11.7785	-45.9596	
459	67	1	-0.8476	-22.933	-12.7651	-46.011	
460	67	2	0.4238	-21.933	-12.7651	-46.011	
461	67	2	0.4238	-23.2663	-11.8223	-46.011	
462	68	1	-0.8476	-19.5157	-12.7389	-46.0366	
463	68	2	0.4238	-18.5157	-12.7389	-46.0366	
464	68	2	0.4238	-19.849	-11.7961	-46.0366	
465	69	1	-0.8476	-16.1185	-12.755	-45.9958	
466	69	2	0.4238	-15.1185	-12.755	-45.9958	
467	69	2	0.4238	-16.4518	-11.8122	-45.9958	
468	70	1	-0.8476	-12.7221	-12.7198	-45.9868	
469	70	2	0.4238	-11.7221	-12.7198	-45.9868	
470	70	2	0.4238	-13.0554	-11.777	-45.9868	
471	71	1	-0.8476	-9.3169	-12.7931	-46.0298	
472	71	2	0.4238	-8.3169	-12.7931	-46.0298	
473	71	2	0.4238	-9.6502	-11.8503	-46.0298	
474	72	1	-0.8476	-5.9595	-12.7189	-45.9678	
475	72	2	0.4238	-4.9595	-12.7189	-45.9678	
476	72	2	0.4238	-6.2928	-11.7761	-45.9678	
477	73	1	-0.8476	-2.5711	-12.7504	-46.0113	
478	73	2	0.4238	-1.5711	-12.7504	-46.0113	
479	73	2	0.4238	-2.9044	-11.8076	-46.0113	
480	74	1	-0.8476	0.88491	-12.769	-46.0426	
481	74	2	0.4238	1.8849	-12.769	-46.0426	
482	74	2	0.4238	0.5516	-11.8262	-46.0426	
483	75	1	-0.8476	4.2907	-12.7981	-45.9744	
484	75	2	0.4238	5.2907	-12.7981	-45.9744	
485	75	2	0.4238	3.9574	-11.8553	-45.9744	
486	76	1	-0.8476	7.6011	-12.777	-45.9836	
487	76	2	0.4238	8.6011	-12.777	-45.9836	
488	76	2	0.4238	7.2678	-11.8342	-45.9836	
489	77	1	-0.8476	11.0188	-12.7604	-45.9642	
490	77	2	0.4238	12.0188	-12.7604	-45.9642	
491	77	2	0.4238	10.6855	-11.8176	-45.9642	
492	78	1	-0.8476	14.4917	-12.7649	-45.9944	
493	78	2	0.4238	15.4917	-12.7649	-45.9944	
494	78	2	0.4238	14.1583	-11.8221	-45.9944	
495	79	1	-0.8476	17.8523	-12.7	-46.0122	
496	79	2	0.4238	18.8523	-12.7	-46.0122	
497	79	2	0.4238	17.5189	-11.7572	-46.0122	
498	80	1	-0.8476	21.2397	-12.7247	-45.9668	
499	80	2	0.4238	22.2397	-12.7247	-45.9668	
500	80	2	0.4238	20.9064	-11.7819	-45.9668	
501	81	1	-0.8476	24.6619	-12.7759	-45.9851	
502	81	2	0.4238	25.6619	-12.7759	-45.9851	
503	81	2	0.4238	24.3286	-11.8331	-45.9851	
504	82	1	-0.8476	-26.3053	-9.3474	-46.0342	
505	82	2	0.4238	-25.3053	-9.3474	-46.0342	
506	82	2	0.4238	-26.6386	-8.4046	-46.0342	
507	83	1	-0.8476	-22.9055	-9.3506	-46.0291	
508	83	2	0.4238	-21.9055	-9.3506	-46.0291	
509	83	2	0.4238	-23.2388	-8.4078	-46.0291	
510	84	1	-0.8476	-19.5306	-9.3993	-45.9783	
511	84	2	0.4238	-18.5306	-9.3993	-45.9783	
512	84	2	0.4238	-19.8639	-8.4565	-45.9783	
513	85	1	-0.8476	-16.1569	-9.3506	-46.0354	
514	85	2	0.4238	-15.1569	-9.3506	-46.0354	
515	85	2	0.4238	-16.4902	-8.4078	-46.0354	
516	86	1	-0.8476	-12.7389	-9.3765	-46.0413	
517	86	2	0.4238	-11.7389	-9.3765	-46.0413	
518	86	2	0.4238	-13.0722	-8.4337	-46.0413	
519	87	1	-0.8476	-9.3276	-9.396	-46.0098	
520	87	2	0.4238	-8.3276	-9.396	-46.0098	
521	87	2	0.4238	-9.6609	-8.4532	-46.0098	
522	88	1	-0.8476	-5.9086	-9.3247	-45.9844	
523	88	2	0.4238	-4.9086	-9.3247	-45.9844	
524	88	2	0.4238	-6.2419	-8.3819	-45.9844	
525	89	1	-0.8476	-2.5476	-9.325	-46.0386	
526	89	2	0.4238	-1.5476	-9.325	-46.0386	
527	89	2	0.4238	-2.8809	-8.3822	-46.0386	
528	90	1	-0.8476	0.85592	-9.3297	-46.0471	
529	90	2	0.4238	1.8559	-9.3297	-46.0471	
530	90	2	0.4238	0.52261	-8.3869	-46.0471	
531	91	1	-0.8476	4.2043	-9.3208	-45.9838	
532	91	2	0.4238	5.2043	-9.3208	-45.9838	
533	91	2	0.4238	3.871	-8.378	-45.9838	
534	92	1	-0.8476	7.637	-9.3228	-45.9642	
535	92	2	0.4238	8.637	-9.3228	-45.9642	
536	92	2	0.4238	7.3037	-8.38	-45.9642	
537	93	1	-0.8476	11.0646	-9.3021	-45.9633	
538	93	2	0.4238	12.0646	-9.3021	-45.9633	
539	93	2	0.4238	10.7313	-8.3593	-45.9633	
540	94	1	-0.8476	14.4782	-9.3746	-46.0171	
541	94	2	0.4238	15.4782	-9.3746	-46.0171	
542	94	2	0.4238	14.1449	-8.4318	-46.0171	
543	95	1	-0.8476	17.8172	-9.3445	-46.0247	
544	95	2	0.4238	18.8172	-9.3445	-46.0247	
545	95	2	0.4238	17.4839	-8.4017	-46.0247	
546	96	1	-0.8476	21.262	-9.3079	-45.9739	
547	96	2	0.4238	22.262	-9.3079	-45.9739	
548	96	2	0.4238	20.9287	-8.3651	-45.9739	
549	97	1	-0.8476	24.6923	-9.3001	-46.0444	
550	97	2	0.4238	25.6923	-9.3001	-46.0444	
551	97	2	0.4238	24.359	-8.3573	-46.0444	
552	98	1	-0.8476	-26.383	-5.9118	-46.0115	
553	98	2	0.4238	-25.383	-5.9118	-46.0115	
554	98	2	0.4238	-26.7163	-4.969	-46.0115	
555	99	1	-0.8476	-22.9637	-5.9624	-45.9738	
556	99	2	0.4238	-21.9637	-5.9624	-45.9738	
557	99	2	0.4238	-23.297	-5.0196	-45.9738	
558	100	1	-0.8476	-19.5921	-5.9864	-46.0421	
559	100	2	0.4238	-18.5921	-5.9864	-46.0421	
560	100	2	0.4238	-19.9255	-5.0436	-46.0421	
561	101	1	-0.8476	-16.1367	-5.9432	-45.9684	
562	101	2	0.4238	-15.1367	-5.9432	-45.9684	
563	101	2	0.4238	-16.47	-5.0004	-45.9684	
564	102	1	-0.8476	-12.7016	-5.9327	-45.9677	
565	102	2	0.4238	-11.7016	-5.9327	-45.9677	
566	102	2	0.4238	-13.0349	-4.9899	-45.9677	
567	103	1	-0.8476	-9.3335	-5.9005	-45.962	
568	103	2	0.4238	-8.3335	-5.9005	-45.962	
569	103	2	0.4238	-9.6668	-4.9577	-45.962	
570	104	1	-0.8476	-5.9893	-5.9585	-46.0252	
571	104	2	0.4238	-4.9893	-5.9585	-46.0252	
572	104	2	0.4238	-6.3226	-5.0157	-46.0252	
573	105	1	-0.8476	-2.592	-5.9613	-46.0482	
574	105	2	0.4238	-1.592	-5.9613	-46.0482	
575	105	2	0.4238	-2.9253	-5.0185	-46.0482	
576	106	1	-0.8476	0.84308	-5.925	-45.9671	
577	106	2	0.4238	1.8431	-5.925	-45.9671	
578	106	2	0.4238	0.50977	-4.9822	-45.9671	
579	107	1	-0.8476	4.2957	-5.9944	-46.0145	
580	107	2	0.4238	5.2957	-5.9944	-46.0145	
581	107	2	0.4238	3.9624	-5.0516	-46.0145	
582	108	1	-0.8476	7.6337	-5.9821	-46.0386	
583	108	2	0.4238	8.6337	-5.9821	-46.0386	
584	108	2	0.4238	7.3004	-5.0393	-46.0386	
585	109	1	-0.8476	11.0882	-5.9153	-45.9676	
586	109	2	0.4238	12.0882	-5.9153	-45.9676	
587	109	2	0.4238	10.7548	-4.9725	-45.9676	
588	110	1	-0.8476	14.4231	-5.9371	-45.9873	
589	110	2	0.4238	15.4231	-5.9371	-45.9873	
590	110	2	0.4238	14.0897	-4.9943	-45.9873	
591	111	1	-0.8476	17.8291	-5.9251	-45.9613	
592	111	2	0.4238	18.8291	-5.9251	-45.9613	
593	111	2	0.4238	17.4958	-4.9823	-45.9613	
594	112	1	-0.8476	21.2677	-5.9197	-45.9584	
595	112	2	0.4238	22.2677	-5.9197	-45.9584	
596	112	2	0.4238	20.9344	-4.9769	-45.9584	
597	113	1	-0.8476	24.639	-5.9828	-46.0373	
598	113	2	0.4238	25.639	-5.9828	-46.0373	
599	113	2	0.4238	24.3057	-5.04	-46.0373	
600	114	1	-0.8476	-26.3366	-2.5517	-45.9883	
601	114	2	0.4238	-25.3366	-2.5517	-45.9883	
602	114	2	0.4238	-26.6699	-1.6089	-45.9883	
603	115	1	-0.8476	-22.9765	-2.5008	-46.0454	
604	115	2	0.4238	-21.9765	-2.5008	-46.0454	
605	115	2	0.4238	-23.3098	-1.558	-46.0454	
606	116	1	-0.8476	-19.5624	-2.5283	-46.0069	
607	116	2	0.4238	-18.5624	-2.5283	-46.0069	
608	116	2	0.4238	-19.8957	-1.5855	-46.0069	
609	117	1	-0.8476	-16.137	-2.5373	-45.957	
610	117	2	0.4238	-15.137	-2.5373	-45.957	
611	117	2	0.4238	-16.4704	-1.5945	-45.957	
612	118	1	-0.8476	-12.7879	-2.5126	-45.9768	
613	118	2	0.4238	-11.7879	-2.5126	-45.9768	
614	118	2	0.4238	-13.1212	-1.5698	-45.9768	
615	119	1	-0.8476	-9.3149	-2.5109	-46.0219	
616	119	2	0.4238	-8.3149	-2.5109	-46.0219	
617	119	2	0.4238	-9.6482	-1.5681	-46.0219	
618	120	1	-0.8476	-5.9346	-2.5543	-45.9899	
619	120	2	0.4238	-4.9346	-2.5543	-45.9899	
620	120	2	0.4238	-6.2679	-1.6115	-45.9899	
621	121	1	-0.8476	-2.5022	-2.5293	-46.02	
622	121	2	0.4238	-1.5022	-2.5293	-46.02	
623	121	2	0.4238	-2.8355	-1.5865	-46.02	
624	122	1	-0.8476	0.80438	-2.5319	-46.0385	
625	122	2	0.4238	1.8044	-2.5319	-46.0385	
626	122	2	0.4238	0.47107	-1.5891	-46.0385	
627	123	1	-0.8476	4.2782	-2.5479	-46.044	
628	123	2	0.4238	5.2782	-2.5479	-46.044	
629	123	2	0.4238	3.9449	-1.6051	-46.044	
630	124	1	-0.8476	7.6161	-2.5092	-45.9815	
631	124	2	0.4238	8.6161	-2.5092	-45.9815	
632	124	2	0.4238	7.2828	-1.5664	-45.9815	
633	125	1	-0.8476	11.0857	-2.5694	-46.0408	
634	125	2	0.4238	12.0857	-2.5694	-46.0408	
635	125	2	0.4238	10.7524	-1.6266	-46.0408	
636	126	1	-0.8476	14.4357	-2.582	-45.9725	
637	126	2	0.4238	15.4357	-2.582	-45.9725	
638	126	2	0.4238	14.1024	-1.6392	-45.9725	
639	127	1	-0.8476	17.8813	-2.5222	-46.0038	
640	127	2	0.4238	18.8813	-2.5222	-46.0038	
641	127	2	0.4238	17.548	-1.5794	-46.0038	
642	128	1	-0.8476	21.2586	-2.5271	-46.0167	
643	128	2	0.4238	22.2586	-2.5271	-46.0167	
644	128	2	0.4238	20.9253	-1.5843	-46.0167	
645	129	1	-0.8476	24.6792	-2.5677	-46.0224	
646	129	2	0.4238	25.6792	-2.5677	-46.0224	
647	129	2	0.4238	24.3459	-1.6249	-46.0224	
648	130	1	-0.8476	-26.3718	0.82782	-46.0076	
649	130	2	0.4238	-25.3718	0.82782	-46.0076	
650	130	2	0.4238	-26.7051	1.7706	-46.0076	
651	131	1	-0.8476	-22.9577	0.87366	-45.9961	
652	131	2	0.4238	-21.9577	0.87366	-45.9961	
653	131	2	0.4238	-23.291	1.8165	-45.9961	
654	132	1	-0.8476	-19.5073	0.87553	-45.9507	
655	132	2	0.4238	-18.5073	0.87553	-45.9507	
656	132	2	0.4238	-19.8406	1.8183	-45.9507	
657	133	1	-0.8476	-16.1196	0.80483	-45.9584	
658	133	2	0.4238	-15.1196	0.80483	-45.9584	
659	133	2	0.4238	-16.4529	1.7476	-45.9584	
660	134	1	-0.8476	-12.7599	0.80524	-46.045	
661	134	2	0.4238	-11.7599	0.80524	-46.045	
662	134	2	0.4238	-13.0933	1.748	-46.045	
663	135	1	-0.8476	-9.3385	0.81029	-46.0225	
664	135	2	0.4238	-8.3385	0.81029	-46.0225	
665	135	2	0.4238	-9.6718	1.7531	-46.0225	
666	136	1	-0.8476	-5.9591	0.85019	-45.9935	
667	136	2	0.4238	-4.9591	0.85019	-45.9935	
668	136	2	0.4238	-6.2924	1.793	-45.9935	
669	137	1	-0.8476	-2.52	0.87331	-45.9889	
670	137	2	0.4238	-1.52	0.87331	-45.9889	
671	137	2	0.4238	-2.8533	1.8161	-45.9889	
672	138	1	-0.8476	0.84195	0.89968	-45.9786	
673	138	2	0.4238	1.8419	0.89968	-45.9786	
674	138	2	0.4238	0.50864	1.8425	-45.9786	
675	139	1	-0.8476	4.2688	0.81755	-45.999	
676	139	2	0.4238	5.2688	0.81755	-45.999	
677	139	2	0.4238	3.9355	1.7603	-45.999	
678	140	1	-0.8476	7.6478	0.83059	-45.9537	
679	140	2	0.4238	8.6478	0.83059	-45.9537	
680	140	2	0.4238	7.3145	1.7734	-45.9537	
681	141	1	-0.8476	11.038	0.81492	-46.0468	
682	141	2	0.4238	12.038	0.81492	-46.0468	
683	141	2	0.4238	10.7047	1.7577	-46.0468	
684	142	1	-0.8476	14.4123	0.88903	-45.9896	
685	142	2	0.4238	15.4123	0.88903	-45.9896	
686	142	2	0.4238	14.079	1.8318	-45.9896	
687	143	1	-0.8476	17.8924	0.86593	-46.0321	
688	143	2	0.4238	18.8924	0.86593	-46.0321	
689	143	2	0.4238	17.5591	1.8087	-46.0321	
690	144	1	-0.8476	21.2892	0.80288	-45.9756	
691	144	2	0.4238	22.2892	0.80288	-45.9756	
692	144	2	0.4238	20.9559	1.7457	-45.9756	
693	145	1	-0.8476	24.688	0.86535	-46.0098	
694	145	2	0.4238	25.688	0.86535	-46.0098	
695	145	2	0.4238	24.3547	1.8081	-46.0098	
696	146	1	-0.8476	-26.3445	4.2081	-46.0423	
697	146	2	0.4238	-25.3445	4.2081	-46.0423	
698	146	2	0.4238	-26.6778	5.1509	-46.0423	
699	147	1	-0.8476	-22.942	4.2667	-46.0051	
700	147	2	0.4238	-21.942	4.2667	-46.0051	
701	147	2	0.4238	-23.2753	5.2095	-46.0051	
702	148	1	-0.8476	-19.5941	4.2045	-45.9594	
703	148	2	0.4238	-18.5941	4.2045	-45.9594	
704	148	2	0.4238	-19.9274	5.1473	-45.9594	
705	149	1	-0.8476	-16.1776	4.2032	-45.9939	
706	149	2	0.4238	-15.1776	4.2032	-45.9939	
707	149	2	0.4238	-16.5109	5.146	-45.9939	
708	150	1	-0.8476	-12.7522	4.2268	-46.0377	
709	150	2	0.4238	-11.7522	4.2268	-46.0377	
710	150	2	0.4238	-13.0855	5.1696	-46.0377	
711	151	1	-0.8476	-9.3566	4.2257	-45.974	
712	151	2	0.4238	-8.3566	4.2257	-45.974	
713	151	2	0.4238	-9.6899	5.1685	-45.974	
714	152	1	-0.8476	-5.9095	4.29	-46.0145	
715	152	2	0.4238	-4.9095	4.29	-46.0145	
716	152	2	0.4238	-6.2428	5.2328	-46.0145	
717	153	1	-0.8476	-2.5542	4.2335	-46.0363	
718	153	2	0.4238	-1.5542	4.2335	-46.0363	
719	153	2	0.4238	-2.8875	5.1763	-46.0363	
720	154	1	-0.8476	0.85766	4.2849	-46.02	
721	154	2	0.4238	1.8577	4.2849	-46.02	
722	154	2	0.4238	0.52435	5.2277	-46.02	
723	155	1	-0.8476	4.2878	4.2376	-46.0231	
724	155	2	0.4238	5.2878	4.2376	-46.0231	
725	155	2	0.4238	3.9545	5.1804	-46.0231	
726	156	1	-0.8476	7.6014	4.2914	-46.0121	
727	156	2	0.4238	8.6014	4.2914	-46.0121	
728	156	2	0.4238	7.2681	5.2342	-46.0121	
729	157	1	-0.8476	11.0877	4.2158	-45.9781	
730	157	2	0.4238	12.0877	4.2158	-45.9781	
731	157	2	0.4238	10.7544	5.1586	-45.9781	
732	158	1	-0.8476	14.4681	4.2113	-46.0498	
733	158	2	0.4238	15.4681	4.2113	-46.0498	
734	158	2	0.4238	14.1347	5.1541	-46.0498	
735	159	1	-0.8476	17.8299	4.2315	-46.0393	
736	159	2	0.4238	18.8299	4.2315	-46.0393	
737	159	2	0.4238	17.4966	5.1743	-46.0393	
738	160	1	-0.8476	21.2228	4.2346	-46.0298	
739	160	2	0.4238	22.2228	4.2346	-46.0298	
740	160	2	0.4238	20.8895	5.1774	-46.0298	
741	161	1	-0.8476	24.615	4.2697	-46.0038	
742	161	2	0.4238	25.615	4.2697	-46.0038	
743	161	2	0.4238	24.2817	5.2125	-46.0038	
744	162	1	-0.8476	-26.3854	7.653	-46.034	
745	162	2	0.4238	-25.3854	7.653	-46.034	
746	162	2	0.4238	-26.7187	8.5958	-46.034	
747	163	1	-0.8476	-22.9448	7.6118	-46.0035	
748	163	2	0.4238	-21.9448	7.6118	-46.0035	
749	163	2	0.4238	-23.2781	8.5546	-46.0035	
750	164	1	-0.8476	-19.5137	7.6077	-46.0179	
751	164	2	0.4238	-18.5137	7.6077	-46.0179	
752	164	2	0.4238	-19.847	8.5505	-46.0179	
753	165	1	-0.8476	-16.1581	7.6471	-46	
754	165	2	0.4238	-15.1581	7.6471	-46	
755	165	2	0.4238	-16.4914	8.5899	-46	
756	166	1	-0.8476	-12.7068	7.6826	-46.0306	
757	166	2	0.4238	-11.7068	7.6826	-46.0306	
758	166	2	0.4238	-13.0401	8.6254	-46.0306	
759	167	1	-0.8476	-9.3491	7.6884	-46.0463	
760	167	2	0.4238	-8.3491	7.6884	-46.0463	
761	167	2	0.4238	-9.6824	8.6312	-46.0463	
762	168	1	-0.8476	-5.9628	7.6773	-45.9899	
763	168	2	0.4238	-4.9628	7.6773	-45.9899	
764	168	2	0.4238	-6.2961	8.6201	-45.9899	