# System

13763 atoms
9330 bonds
5113 angles
1193 dihedrals
147 impropers

15 atom types
8 bond types
14 angle types
15 dihedral types
1 improper types
extra bond per atom 2
extra angle per atom 1
extra special per atom 2
-27.2         27.2 xlo xhi
-27.2         27.2 ylo yhi
-50  50 zlo zhi

Atoms

1	1	3	-0.115	0	-9.1962	-35.802	
2	1	3	-0.115	0	-9.9036	-34.5767	
3	1	3	0	0	-9.1962	-33.3515	
4	1	3	-0.115	0	-9.9036	-32.1262	
5	1	3	0	0	-9.1962	-30.901	
6	1	3	-0.115	0	-9.9036	-29.6757	
7	1	3	0	0	-9.1962	-28.4505	
8	1	3	-0.115	0	-9.9036	-27.2252	
9	1	3	0	0	-9.1962	-26	
10	1	13	0.15	0	-9.9036	-24.7747	
11	1	3	0	0	-9.1962	-23.5495	
12	1	3	-0.115	0	-9.9036	-22.3242	
13	1	3	0	0	-9.1962	-21.099	
14	1	13	0.15	0	-9.9036	-19.8737	
15	1	3	0	0	-9.1962	-18.6485	
16	1	3	-0.115	0	-9.9036	-17.4232	
17	1	3	-0.115	0	-9.1962	-16.198	
18	1	13	0.15	0	-7.7814	-35.802	
19	1	3	0	0	-7.074	-34.5767	
20	1	3	0	0	-7.7814	-33.3515	
21	1	3	0	0	-7.074	-32.1262	
22	1	3	0	0	-7.7814	-30.901	
23	1	3	0	0	-7.074	-29.6757	
24	1	3	0	0	-7.7814	-28.4505	
25	1	3	0	0	-7.074	-27.2252	
26	1	5	0.265	0	-7.7814	-26	
27	1	5	0.265	0	-7.074	-24.7747	
28	1	3	0	0	-7.7814	-23.5495	
29	1	3	0	0	-7.074	-22.3242	
30	1	3	0	0	-7.7814	-21.099	
31	1	3	0	0	-7.074	-19.8737	
32	1	3	0	0	-7.7814	-18.6485	
33	1	3	0	0	-7.074	-17.4232	
34	1	3	-0.115	0	-7.7814	-16.198	
35	1	13	0.15	0	-4.9518	-35.802	
36	1	5	0.265	0	-5.6592	-34.5767	
37	1	5	0.265	0	-4.9518	-33.3515	
38	1	5	0.265	0	-5.6592	-32.1262	
39	1	5	0.265	0	-4.9518	-30.901	
40	1	3	0	0	-5.6592	-29.6757	
41	1	5	0.265	0	-4.9518	-28.4505	
42	1	3	0	0	-5.6592	-27.2252	
43	1	5	0.265	0	-4.9518	-26	
44	1	5	0.265	0	-5.6592	-24.7747	
45	1	3	0	0	-4.9518	-23.5495	
46	1	3	0	0	-5.6592	-22.3242	
47	1	3	0	0	-4.9518	-21.099	
48	1	3	0	0	-5.6592	-19.8737	
49	1	3	0	0	-4.9518	-18.6485	
50	1	3	0	0	-5.6592	-17.4232	
51	1	13	0.15	0	-4.9518	-16.198	
52	1	3	-0.115	0	-3.537	-35.802	
53	1	3	0	0	-2.8296	-34.5767	
54	1	3	0	0	-3.537	-33.3515	
55	1	3	0	0	-2.8296	-32.1262	
56	1	5	0.265	0	-3.537	-30.901	
57	1	5	0.265	0	-2.8296	-29.6757	
58	1	5	0.265	0	-3.537	-28.4505	
59	1	5	0.265	0	-2.8296	-27.2252	
60	1	3	0	0	-3.537	-26	
61	1	3	0	0	-2.8296	-24.7747	
62	1	3	0	0	-3.537	-23.5495	
63	1	3	0	0	-2.8296	-22.3242	
64	1	3	0	0	-3.537	-21.099	
65	1	3	0	0	-2.8296	-19.8737	
66	1	3	0	0	-3.537	-18.6485	
67	1	3	0	0	-2.8296	-17.4232	
68	1	3	-0.115	0	-3.537	-16.198	
69	1	3	-0.115	0	-0.7074	-35.802	
70	1	3	0	0	-1.4148	-34.5767	
71	1	3	0	0	-0.7074	-33.3515	
72	1	5	0.265	0	-1.4148	-32.1262	
73	1	5	0.265	0	-0.7074	-30.901	
74	1	3	0	0	-1.4148	-29.6757	
75	1	5	0.265	0	-0.7074	-28.4505	
76	1	3	0	0	-1.4148	-27.2252	
77	1	3	0	0	-0.7074	-26	
78	1	3	0	0	-1.4148	-24.7747	
79	1	3	0	0	-0.7074	-23.5495	
80	1	3	0	0	-1.4148	-22.3242	
81	1	3	0	0	-0.7074	-21.099	
82	1	3	0	0	-1.4148	-19.8737	
83	1	3	0	0	-0.7074	-18.6485	
84	1	3	0	0	-1.4148	-17.4232	
85	1	13	0.15	0	-0.7074	-16.198	
86	1	3	-0.115	0	0.7074	-35.802	
87	1	3	0	0	1.4148	-34.5767	
88	1	5	0.265	0	0.7074	-33.3515	
89	1	5	0.265	0	1.4148	-32.1262	
90	1	3	0	0	0.7074	-30.901	
91	1	3	0	0	1.4148	-29.6757	
92	1	5	0.265	0	0.7074	-28.4505	
93	1	3	0	0	1.4148	-27.2252	
94	1	3	0	0	0.7074	-26	
95	1	3	0	0	1.4148	-24.7747	
96	1	3	0	0	0.7074	-23.5495	
97	1	3	0	0	1.4148	-22.3242	
98	1	3	0	0	0.7074	-21.099	
99	1	3	0	0	1.4148	-19.8737	
100	1	3	0	0	0.7074	-18.6485	
101	1	3	0	0	1.4148	-17.4232	
102	1	3	-0.115	0	0.7074	-16.198	
103	1	13	0.15	0	3.537	-35.802	
104	1	3	0	0	2.8296	-34.5767	
105	1	3	0	0	3.537	-33.3515	
106	1	3	0	0	2.8296	-32.1262	
107	1	5	0.265	0	3.537	-30.901	
108	1	5	0.265	0	2.8296	-29.6757	
109	1	3	0	0	3.537	-28.4505	
110	1	3	0	0	2.8296	-27.2252	
111	1	3	0	0	3.537	-26	
112	1	3	0	0	2.8296	-24.7747	
113	1	3	0	0	3.537	-23.5495	
114	1	3	0	0	2.8296	-22.3242	
115	1	3	0	0	3.537	-21.099	
116	1	3	0	0	2.8296	-19.8737	
117	1	3	0	0	3.537	-18.6485	
118	1	3	0	0	2.8296	-17.4232	
119	1	3	-0.115	0	3.537	-16.198	
120	1	13	0.15	0	4.9518	-35.802	
121	1	3	0	0	5.6592	-34.5767	
122	1	3	0	0	4.9518	-33.3515	
123	1	3	0	0	5.6592	-32.1262	
124	1	3	0	0	4.9518	-30.901	
125	1	5	0.265	0	5.6592	-29.6757	
126	1	5	0.265	0	4.9518	-28.4505	
127	1	3	0	0	5.6592	-27.2252	
128	1	3	0	0	4.9518	-26	
129	1	3	0	0	5.6592	-24.7747	
130	1	3	0	0	4.9518	-23.5495	
131	1	3	0	0	5.6592	-22.3242	
132	1	3	0	0	4.9518	-21.099	
133	1	3	0	0	5.6592	-19.8737	
134	1	3	0	0	4.9518	-18.6485	
135	1	3	0	0	5.6592	-17.4232	
136	1	3	-0.115	0	4.9518	-16.198	
137	1	3	-0.115	0	7.7814	-35.802	
138	1	3	0	0	7.074	-34.5767	
139	1	3	0	0	7.7814	-33.3515	
140	1	3	0	0	7.074	-32.1262	
141	1	3	0	0	7.7814	-30.901	
142	1	3	0	0	7.074	-29.6757	
143	1	3	0	0	7.7814	-28.4505	
144	1	3	0	0	7.074	-27.2252	
145	1	3	0	0	7.7814	-26	
146	1	3	0	0	7.074	-24.7747	
147	1	3	0	0	7.7814	-23.5495	
148	1	3	0	0	7.074	-22.3242	
149	1	3	0	0	7.7814	-21.099	
150	1	3	0	0	7.074	-19.8737	
151	1	3	0	0	7.7814	-18.6485	
152	1	3	0	0	7.074	-17.4232	
153	1	3	-0.115	0	7.7814	-16.198	
154	1	3	-0.115	0	9.1962	-35.802	
155	1	3	-0.115	0	9.9036	-34.5767	
156	1	3	0	0	9.1962	-33.3515	
157	1	3	-0.115	0	9.9036	-32.1262	
158	1	3	0	0	9.1962	-30.901	
159	1	3	-0.115	0	9.9036	-29.6757	
160	1	3	0	0	9.1962	-28.4505	
161	1	3	-0.115	0	9.9036	-27.2252	
162	1	3	0	0	9.1962	-26	
163	1	3	-0.115	0	9.9036	-24.7747	
164	1	3	0	0	9.1962	-23.5495	
165	1	13	0.15	0	9.9036	-22.3242	
166	1	3	0	0	9.1962	-21.099	
167	1	13	0.15	0	9.9036	-19.8737	
168	1	3	0	0	9.1962	-18.6485	
169	1	3	-0.115	0	9.9036	-17.4232	
170	1	13	0.15	0	9.1962	-16.198	
171	1	4	0.115	0	-10.9806	-34.5767	
172	1	4	0.115	0	-10.9806	-32.1262	
173	1	4	0.115	0	-10.9806	-29.6757	
174	1	4	0.115	0	-10.9806	-27.2252	
175	1	9	-0.585	0	-11.3036	-24.7747	
176	1	4	0.115	0	-10.9806	-22.3242	
177	1	9	-0.585	0	-11.3036	-19.8737	
178	1	4	0.115	0	-10.9806	-17.4232	
179	1	4	0.115	0	10.9806	-34.5767	
180	1	4	0.115	0	10.9806	-32.1262	
181	1	4	0.115	0	10.9806	-29.6757	
182	1	4	0.115	0	10.9806	-27.2252	
183	1	4	0.115	0	10.9806	-24.7747	
184	1	9	-0.585	0	11.3036	-22.3242	
185	1	9	-0.585	0	11.3036	-19.8737	
186	1	4	0.115	0	10.9806	-17.4232	
187	1	4	0.115	0	-9.7347	-36.7347	
188	1	9	-0.585	0	-7.0814	-37.0144	
189	1	4	0.115	0	-9.7347	-15.2652	
190	1	4	0.115	0	-7.2429	-15.2652	
191	1	9	-0.585	0	-5.6518	-37.0144	
192	1	4	0.115	0	-2.9985	-36.7347	
193	1	9	-0.585	0	-5.6518	-14.9855	
194	1	4	0.115	0	-2.9985	-15.2652	
195	1	4	0.115	0	-1.2459	-36.7347	
196	1	4	0.115	0	1.2459	-36.7347	
197	1	9	-0.585	0	-1.4074	-14.9855	
198	1	4	0.115	0	1.2459	-15.2652	
199	1	9	-0.585	0	2.837	-37.0144	
200	1	9	-0.585	0	5.6518	-37.0144	
201	1	4	0.115	0	2.9985	-15.2652	
202	1	4	0.115	0	5.4903	-15.2652	
203	1	4	0.115	0	7.2429	-36.7347	
204	1	4	0.115	0	9.7347	-36.7347	
205	1	4	0.115	0	7.2429	-15.2652	
206	1	9	-0.585	0	9.8962	-14.9855	
207	1	7	0.435	-0.7	-12.0036	-24.7747	
208	1	7	0.435	-0.7	-12.0036	-19.8737	
209	1	7	0.435	-0.7	12.0036	-22.3242	
210	1	7	0.435	0.7	12.0036	-19.8737	
211	1	7	0.435	-0.7	-6.7314	-37.6207	
212	1	7	0.435	-0.7	-6.0018	-37.6207	
213	1	7	0.435	-0.7	-6.0018	-14.3793	
214	1	7	0.435	-0.7	-1.7574	-14.3793	
215	1	7	0.435	0.7	2.487	-37.6207	
216	1	7	0.435	0.7	6.0018	-37.6207	
217	1	7	0.435	0.7	10.2462	-14.3793	
218	1	6	-0.683	1.4	-4.9518	-33.3515	
219	1	7	0.418	2.4	-4.9518	-33.3515	
220	1	6	-0.683	-1.4	-5.6592	-34.5767	
221	1	7	0.418	-2.4	-5.6592	-34.5767	
222	1	6	-0.683	1.4	-5.6592	-32.1262	
223	1	7	0.418	2.4	-5.6592	-32.1262	
224	1	6	-0.683	-1.4	-1.4148	-32.1262	
225	1	7	0.418	-2.4	-1.4148	-32.1262	
226	1	6	-0.683	-1.4	-4.9518	-30.901	
227	1	7	0.418	-2.4	-4.9518	-30.901	
228	1	6	-0.683	1.4	-2.8296	-29.6757	
229	1	7	0.418	2.4	-2.8296	-29.6757	
230	1	6	-0.683	1.4	0.7074	-33.3515	
231	1	7	0.418	2.4	0.7074	-33.3515	
232	1	6	-0.683	-1.4	-0.7074	-30.901	
233	1	7	0.418	-2.4	-0.7074	-30.901	
234	1	6	-0.683	1.4	0.7074	-28.4505	
235	1	7	0.418	2.4	0.7074	-28.4505	
236	1	6	-0.683	-1.4	1.4148	-32.1262	
237	1	7	0.418	-2.4	1.4148	-32.1262	
238	1	6	-0.683	1.4	-0.7074	-28.4505	
239	1	7	0.418	2.4	-0.7074	-28.4505	
240	1	6	-0.683	-1.4	-3.537	-28.4505	
241	1	7	0.418	-2.4	-3.537	-28.4505	
242	1	6	-0.683	1.4	-4.9518	-28.4505	
243	1	7	0.418	2.4	-4.9518	-28.4505	
244	1	6	-0.683	-1.4	-4.9518	-26	
245	1	7	0.418	-2.4	-4.9518	-26	
246	1	6	-0.683	-1.4	-3.537	-30.901	
247	1	7	0.418	-2.4	-3.537	-30.901	
248	1	6	-0.683	-1.4	2.8296	-29.6757	
249	1	7	0.418	-2.4	2.8296	-29.6757	
250	1	6	-0.683	1.4	-7.7814	-26	
251	1	7	0.418	2.4	-7.7814	-26	
252	1	6	-0.683	1.4	3.537	-30.901	
253	1	7	0.418	2.4	3.537	-30.901	
254	1	6	-0.683	1.4	4.9518	-28.4505	
255	1	7	0.418	2.4	4.9518	-28.4505	
256	1	6	-0.683	-1.4	-7.074	-24.7747	
257	1	7	0.418	-2.4	-7.074	-24.7747	
258	1	6	-0.683	1.4	5.6592	-29.6757	
259	1	7	0.418	2.4	5.6592	-29.6757	
260	1	6	-0.683	1.4	-5.6592	-24.7747	
261	1	7	0.418	2.4	-5.6592	-24.7747	
262	1	6	-0.683	-1.4	-2.8296	-27.2252	
263	1	7	0.418	-2.4	-2.8296	-27.2252	
264	2	1	-0.8476	-26.3249	-26.3253	-46.0269	
265	2	2	0.4238	-25.3249	-26.3253	-46.0269	
266	2	2	0.4238	-26.6582	-25.3825	-46.0269	
267	3	1	-0.8476	-22.9685	-26.3838	-46.0458	
268	3	2	0.4238	-21.9685	-26.3838	-46.0458	
269	3	2	0.4238	-23.3018	-25.441	-46.0458	
270	4	1	-0.8476	-19.5446	-26.3328	-45.9512	
271	4	2	0.4238	-18.5446	-26.3328	-45.9512	
272	4	2	0.4238	-19.8779	-25.39	-45.9512	
273	5	1	-0.8476	-16.1101	-26.3851	-46.0412	
274	5	2	0.4238	-15.1101	-26.3851	-46.0412	
275	5	2	0.4238	-16.4434	-25.4423	-46.0412	
276	6	1	-0.8476	-12.7647	-26.3149	-45.9797	
277	6	2	0.4238	-11.7647	-26.3149	-45.9797	
278	6	2	0.4238	-13.098	-25.3721	-45.9797	
279	7	1	-0.8476	-9.3837	-26.3802	-45.9562	
280	7	2	0.4238	-8.3837	-26.3802	-45.9562	
281	7	2	0.4238	-9.717	-25.4374	-45.9562	
282	8	1	-0.8476	-5.9738	-26.3959	-45.9851	
283	8	2	0.4238	-4.9738	-26.3959	-45.9851	
284	8	2	0.4238	-6.3071	-25.4531	-45.9851	
285	9	1	-0.8476	-2.5613	-26.3295	-46.0431	
286	9	2	0.4238	-1.5613	-26.3295	-46.0431	
287	9	2	0.4238	-2.8946	-25.3867	-46.0431	
288	10	1	-0.8476	0.8931	-26.3745	-45.9828	
289	10	2	0.4238	1.8931	-26.3745	-45.9828	
290	10	2	0.4238	0.55979	-25.4317	-45.9828	
291	11	1	-0.8476	4.2252	-26.3056	-46.0174	
292	11	2	0.4238	5.2252	-26.3056	-46.0174	
293	11	2	0.4238	3.8919	-25.3628	-46.0174	
294	12	1	-0.8476	7.6937	-26.3739	-45.9658	
295	12	2	0.4238	8.6937	-26.3739	-45.9658	
296	12	2	0.4238	7.3604	-25.4311	-45.9658	
297	13	1	-0.8476	11.0651	-26.3365	-46.0202	
298	13	2	0.4238	12.0651	-26.3365	-46.0202	
299	13	2	0.4238	10.7318	-25.3937	-46.0202	
300	14	1	-0.8476	14.4653	-26.3021	-45.9799	
301	14	2	0.4238	15.4653	-26.3021	-45.9799	
302	14	2	0.4238	14.132	-25.3593	-45.9799	
303	15	1	-0.8476	17.8354	-26.326	-46.0205	
304	15	2	0.4238	18.8354	-26.326	-46.0205	
305	15	2	0.4238	17.5021	-25.3832	-46.0205	
306	16	1	-0.8476	21.247	-26.3242	-45.9959	
307	16	2	0.4238	22.247	-26.3242	-45.9959	
308	16	2	0.4238	20.9137	-25.3814	-45.9959	
309	17	1	-0.8476	24.6808	-26.3849	-46.0299	
310	17	2	0.4238	25.6808	-26.3849	-46.0299	
311	17	2	0.4238	24.3475	-25.4421	-46.0299	
312	18	1	-0.8476	-26.3236	-22.9703	-46.0003	
313	18	2	0.4238	-25.3236	-22.9703	-46.0003	
314	18	2	0.4238	-26.6569	-22.0275	-46.0003	
315	19	1	-0.8476	-22.937	-22.9576	-46.0306	
316	19	2	0.4238	-21.937	-22.9576	-46.0306	
317	19	2	0.4238	-23.2703	-22.0148	-46.0306	
318	20	1	-0.8476	-19.5932	-22.9891	-46.0062	
319	20	2	0.4238	-18.5932	-22.9891	-46.0062	
320	20	2	0.4238	-19.9265	-22.0463	-46.0062	
321	21	1	-0.8476	-16.1611	-22.9748	-45.9858	
322	21	2	0.4238	-15.1611	-22.9748	-45.9858	
323	21	2	0.4238	-16.4944	-22.032	-45.9858	
324	22	1	-0.8476	-12.7353	-22.9378	-46.047	
325	22	2	0.4238	-11.7353	-22.9378	-46.047	
326	22	2	0.4238	-13.0686	-21.995	-46.047	
327	23	1	-0.8476	-9.3751	-22.9287	-45.9767	
328	23	2	0.4238	-8.3751	-22.9287	-45.9767	
329	23	2	0.4238	-9.7084	-21.9859	-45.9767	
330	24	1	-0.8476	-5.9112	-22.9461	-46.0308	
331	24	2	0.4238	-4.9112	-22.9461	-46.0308	
332	24	2	0.4238	-6.2445	-22.0033	-46.0308	
333	25	1	-0.8476	-2.5228	-22.9382	-45.9562	
334	25	2	0.4238	-1.5228	-22.9382	-45.9562	
335	25	2	0.4238	-2.8561	-21.9954	-45.9562	
336	26	1	-0.8476	0.84919	-22.9646	-45.9686	
337	26	2	0.4238	1.8492	-22.9646	-45.9686	
338	26	2	0.4238	0.51588	-22.0218	-45.9686	
339	27	1	-0.8476	4.2321	-22.9024	-46.0122	
340	27	2	0.4238	5.2321	-22.9024	-46.0122	
341	27	2	0.4238	3.8988	-21.9596	-46.0122	
342	28	1	-0.8476	7.6093	-22.9979	-45.9971	
343	28	2	0.4238	8.6093	-22.9979	-45.9971	
344	28	2	0.4238	7.276	-22.0551	-45.9971	
345	29	1	-0.8476	11.0097	-22.9085	-45.9776	
346	29	2	0.4238	12.0097	-22.9085	-45.9776	
347	29	2	0.4238	10.6764	-21.9657	-45.9776	
348	30	1	-0.8476	14.4458	-22.9729	-45.9669	
349	30	2	0.4238	15.4458	-22.9729	-45.9669	
350	30	2	0.4238	14.1125	-22.0301	-45.9669	
351	31	1	-0.8476	17.8057	-22.9445	-45.9905	
352	31	2	0.4238	18.8057	-22.9445	-45.9905	
353	31	2	0.4238	17.4724	-22.0017	-45.9905	
354	32	1	-0.8476	21.2307	-22.9634	-45.9506	
355	32	2	0.4238	22.2307	-22.9634	-45.9506	
356	32	2	0.4238	20.8974	-22.0206	-45.9506	
357	33	1	-0.8476	24.6617	-22.9183	-45.9899	
358	33	2	0.4238	25.6617	-22.9183	-45.9899	
359	33	2	0.4238	24.3284	-21.9755	-45.9899	
360	34	1	-0.8476	-26.3946	-19.594	-46.0066	
361	34	2	0.4238	-25.3946	-19.594	-46.0066	
362	34	2	0.4238	-26.7279	-18.6512	-46.0066	
363	35	1	-0.8476	-22.9313	-19.5327	-46.0141	
364	35	2	0.4238	-21.9313	-19.5327	-46.0141	
365	35	2	0.4238	-23.2646	-18.5899	-46.0141	
366	36	1	-0.8476	-19.5509	-19.5827	-46.0388	
367	36	2	0.4238	-18.5509	-19.5827	-46.0388	
368	36	2	0.4238	-19.8842	-18.6399	-46.0388	
369	37	1	-0.8476	-16.1426	-19.5628	-46.0143	
370	37	2	0.4238	-15.1426	-19.5628	-46.0143	
371	37	2	0.4238	-16.4759	-18.62	-46.0143	
372	38	1	-0.8476	-12.7905	-19.5015	-46.0077	
373	38	2	0.4238	-11.7905	-19.5015	-46.0077	
374	38	2	0.4238	-13.1238	-18.5587	-46.0077	
375	39	1	-0.8476	-9.3234	-19.5255	-45.9634	
376	39	2	0.4238	-8.3234	-19.5255	-45.9634	
377	39	2	0.4238	-9.6568	-18.5827	-45.9634	
378	40	1	-0.8476	-5.9191	-19.5478	-46.0244	
379	40	2	0.4238	-4.9191	-19.5478	-46.0244	
380	40	2	0.4238	-6.2524	-18.605	-46.0244	
381	41	1	-0.8476	-2.5117	-19.5152	-46.0479	
382	41	2	0.4238	-1.5117	-19.5152	-46.0479	
383	41	2	0.4238	-2.845	-18.5724	-46.0479	
384	42	1	-0.8476	0.806	-19.5311	-46.0239	
385	42	2	0.4238	1.806	-19.5311	-46.0239	
386	42	2	0.4238	0.47269	-18.5883	-46.0239	
387	43	1	-0.8476	4.2021	-19.5408	-46.046	
388	43	2	0.4238	5.2021	-19.5408	-46.046	
389	43	2	0.4238	3.8688	-18.598	-46.046	
390	44	1	-0.8476	7.6103	-19.5639	-46.0492	
391	44	2	0.4238	8.6103	-19.5639	-46.0492	
392	44	2	0.4238	7.277	-18.6211	-46.0492	
393	45	1	-0.8476	11.0465	-19.5883	-45.9781	
394	45	2	0.4238	12.0465	-19.5883	-45.9781	
395	45	2	0.4238	10.7132	-18.6455	-45.9781	
396	46	1	-0.8476	14.4668	-19.5441	-45.9933	
397	46	2	0.4238	15.4668	-19.5441	-45.9933	
398	46	2	0.4238	14.1334	-18.6013	-45.9933	
399	47	1	-0.8476	17.8467	-19.5629	-46.0465	
400	47	2	0.4238	18.8467	-19.5629	-46.0465	
401	47	2	0.4238	17.5134	-18.6201	-46.0465	
402	48	1	-0.8476	21.2865	-19.5039	-45.959	
403	48	2	0.4238	22.2865	-19.5039	-45.959	
404	48	2	0.4238	20.9532	-18.5611	-45.959	
405	49	1	-0.8476	24.6755	-19.5714	-46.017	
406	49	2	0.4238	25.6755	-19.5714	-46.017	
407	49	2	0.4238	24.3422	-18.6286	-46.017	
408	50	1	-0.8476	-26.3529	-16.1431	-45.9897	
409	50	2	0.4238	-25.3529	-16.1431	-45.9897	
410	50	2	0.4238	-26.6862	-15.2003	-45.9897	
411	51	1	-0.8476	-22.9762	-16.1424	-46.0132	
412	51	2	0.4238	-21.9762	-16.1424	-46.0132	
413	51	2	0.4238	-23.3095	-15.1996	-46.0132	
414	52	1	-0.8476	-19.5728	-16.1014	-45.9852	
415	52	2	0.4238	-18.5728	-16.1014	-45.9852	
416	52	2	0.4238	-19.9061	-15.1586	-45.9852	
417	53	1	-0.8476	-16.1609	-16.1884	-46.0192	
418	53	2	0.4238	-15.1609	-16.1884	-46.0192	
419	53	2	0.4238	-16.4942	-15.2456	-46.0192	
420	54	1	-0.8476	-12.7959	-16.162	-45.9776	
421	54	2	0.4238	-11.7959	-16.162	-45.9776	
422	54	2	0.4238	-13.1292	-15.2192	-45.9776	
423	55	1	-0.8476	-9.3223	-16.19	-45.958	
424	55	2	0.4238	-8.3223	-16.19	-45.958	
425	55	2	0.4238	-9.6556	-15.2472	-45.958	
426	56	1	-0.8476	-5.9313	-16.1886	-45.9741	
427	56	2	0.4238	-4.9313	-16.1886	-45.9741	
428	56	2	0.4238	-6.2646	-15.2458	-45.9741	
429	57	1	-0.8476	-2.5253	-16.1182	-45.99	
430	57	2	0.4238	-1.5253	-16.1182	-45.99	
431	57	2	0.4238	-2.8586	-15.1754	-45.99	
432	58	1	-0.8476	0.85679	-16.1175	-45.9534	
433	58	2	0.4238	1.8568	-16.1175	-45.9534	
434	58	2	0.4238	0.52348	-15.1747	-45.9534	
435	59	1	-0.8476	4.2048	-16.1838	-45.9669	
436	59	2	0.4238	5.2048	-16.1838	-45.9669	
437	59	2	0.4238	3.8715	-15.241	-45.9669	
438	60	1	-0.8476	7.601	-16.1342	-45.9647	
439	60	2	0.4238	8.601	-16.1342	-45.9647	
440	60	2	0.4238	7.2677	-15.1914	-45.9647	
441	61	1	-0.8476	11.037	-16.1278	-46.0113	
442	61	2	0.4238	12.037	-16.1278	-46.0113	
443	61	2	0.4238	10.7036	-15.185	-46.0113	
444	62	1	-0.8476	14.4931	-16.1528	-45.9976	
445	62	2	0.4238	15.4931	-16.1528	-45.9976	
446	62	2	0.4238	14.1598	-15.21	-45.9976	
447	63	1	-0.8476	17.8035	-16.1778	-45.9692	
448	63	2	0.4238	18.8035	-16.1778	-45.9692	
449	63	2	0.4238	17.4702	-15.235	-45.9692	
450	64	1	-0.8476	21.2111	-16.1559	-45.9823	
451	64	2	0.4238	22.2111	-16.1559	-45.9823	
452	64	2	0.4238	20.8778	-15.2131	-45.9823	
453	65	1	-0.8476	24.646	-16.198	-45.981	
454	65	2	0.4238	25.646	-16.198	-45.981	
455	65	2	0.4238	24.3127	-15.2552	-45.981	
456	66	1	-0.8476	-26.3773	-12.7782	-46.042	
457	66	2	0.4238	-25.3773	-12.7782	-46.042	
458	66	2	0.4238	-26.7106	-11.8354	-46.042	
459	67	1	-0.8476	-22.9459	-12.7406	-46.0426	
460	67	2	0.4238	-21.9459	-12.7406	-46.0426	
461	67	2	0.4238	-23.2793	-11.7978	-46.0426	
462	68	1	-0.8476	-19.5818	-12.7587	-46.0332	
463	68	2	0.4238	-18.5818	-12.7587	-46.0332	
464	68	2	0.4238	-19.9151	-11.8159	-46.0332	
465	69	1	-0.8476	-16.1118	-12.709	-46.0069	
466	69	2	0.4238	-15.1118	-12.709	-46.0069	
467	69	2	0.4238	-16.4451	-11.7662	-46.0069	
468	70	1	-0.8476	-12.7869	-12.7493	-45.9704	
469	70	2	0.4238	-11.7869	-12.7493	-45.9704	
470	70	2	0.4238	-13.1202	-11.8065	-45.9704	
471	71	1	-0.8476	-9.3401	-12.732	-46.0033	
472	71	2	0.4238	-8.3401	-12.732	-46.0033	
473	71	2	0.4238	-9.6734	-11.7892	-46.0033	
474	72	1	-0.8476	-5.9288	-12.7711	-46.0471	
475	72	2	0.4238	-4.9288	-12.7711	-46.0471	
476	72	2	0.4238	-6.2621	-11.8283	-46.0471	
477	73	1	-0.8476	-2.5501	-12.7805	-45.9536	
478	73	2	0.4238	-1.5501	-12.7805	-45.9536	
479	73	2	0.4238	-2.8834	-11.8377	-45.9536	
480	74	1	-0.8476	0.87631	-12.7387	-46.0114	
481	74	2	0.4238	1.8763	-12.7387	-46.0114	
482	74	2	0.4238	0.543	-11.7959	-46.0114	
483	75	1	-0.8476	4.2911	-12.7464	-45.975	
484	75	2	0.4238	5.2911	-12.7464	-45.975	
485	75	2	0.4238	3.9578	-11.8036	-45.975	
486	76	1	-0.8476	7.6408	-12.7659	-45.9753	
487	76	2	0.4238	8.6408	-12.7659	-45.9753	
488	76	2	0.4238	7.3075	-11.8231	-45.9753	
489	77	1	-0.8476	11.0805	-12.7606	-45.9725	
490	77	2	0.4238	12.0805	-12.7606	-45.9725	
491	77	2	0.4238	10.7472	-11.8178	-45.9725	
492	78	1	-0.8476	14.4508	-12.7606	-46.0117	
493	78	2	0.4238	15.4508	-12.7606	-46.0117	
494	78	2	0.4238	14.1175	-11.8178	-46.0117	
495	79	1	-0.8476	17.8883	-12.727	-45.9734	
496	79	2	0.4238	18.8883	-12.727	-45.9734	
497	79	2	0.4238	17.555	-11.7842	-45.9734	
498	80	1	-0.8476	21.2489	-12.7592	-45.9626	
499	80	2	0.4238	22.2489	-12.7592	-45.9626	
500	80	2	0.4238	20.9156	-11.8164	-45.9626	
501	81	1	-0.8476	24.6248	-12.7983	-46.0403	
502	81	2	0.4238	25.6248	-12.7983	-46.0403	
503	81	2	0.4238	24.2915	-11.8555	-46.0403	
504	82	1	-0.8476	-26.3192	-9.3018	-46.0005	
505	82	2	0.4238	-25.3192	-9.3018	-46.0005	
506	82	2	0.4238	-26.6525	-8.359	-46.0005	
507	83	1	-0.8476	-22.957	-9.3304	-46.0281	
508	83	2	0.4238	-21.957	-9.3304	-46.0281	
509	83	2	0.4238	-23.2904	-8.3876	-46.0281	
510	84	1	-0.8476	-19.5924	-9.3539	-46.0116	
511	84	2	0.4238	-18.5924	-9.3539	-46.0116	
512	84	2	0.4238	-19.9257	-8.4111	-46.0116	
513	85	1	-0.8476	-16.1759	-9.324	-45.9535	
514	85	2	0.4238	-15.1759	-9.324	-45.9535	
515	85	2	0.4238	-16.5092	-8.3812	-45.9535	
516	86	1	-0.8476	-12.7905	-9.322	-46.0311	
517	86	2	0.4238	-11.7905	-9.322	-46.0311	
518	86	2	0.4238	-13.1238	-8.3792	-46.0311	
519	87	1	-0.8476	-9.3991	-9.359	-46.0359	
520	87	2	0.4238	-8.3991	-9.359	-46.0359	
521	87	2	0.4238	-9.7324	-8.4162	-46.0359	
522	88	1	-0.8476	-5.9467	-9.3442	-45.9807	
523	88	2	0.4238	-4.9467	-9.3442	-45.9807	
524	88	2	0.4238	-6.28	-8.4014	-45.9807	
525	89	1	-0.8476	-2.5124	-9.398	-45.9813	
526	89	2	0.4238	-1.5124	-9.398	-45.9813	
527	89	2	0.4238	-2.8457	-8.4552	-45.9813	
528	90	1	-0.8476	0.89864	-9.3014	-46.0044	
529	90	2	0.4238	1.8986	-9.3014	-46.0044	
530	90	2	0.4238	0.56533	-8.3586	-46.0044	
531	91	1	-0.8476	4.2348	-9.3017	-46.0014	
532	91	2	0.4238	5.2348	-9.3017	-46.0014	
533	91	2	0.4238	3.9015	-8.3589	-46.0014	
534	92	1	-0.8476	7.6315	-9.3619	-46.0482	
535	92	2	0.4238	8.6315	-9.3619	-46.0482	
536	92	2	0.4238	7.2982	-8.4191	-46.0482	
537	93	1	-0.8476	11.0504	-9.3873	-46.0195	
538	93	2	0.4238	12.0504	-9.3873	-46.0195	
539	93	2	0.4238	10.7171	-8.4445	-46.0195	
540	94	1	-0.8476	14.4256	-9.3998	-45.9727	
541	94	2	0.4238	15.4256	-9.3998	-45.9727	
542	94	2	0.4238	14.0923	-8.457	-45.9727	
543	95	1	-0.8476	17.8662	-9.3602	-45.9999	
544	95	2	0.4238	18.8662	-9.3602	-45.9999	
545	95	2	0.4238	17.5329	-8.4174	-45.9999	
546	96	1	-0.8476	21.2613	-9.3867	-46.0217	
547	96	2	0.4238	22.2613	-9.3867	-46.0217	
548	96	2	0.4238	20.9279	-8.4439	-46.0217	
549	97	1	-0.8476	24.6837	-9.3134	-46.0445	
550	97	2	0.4238	25.6837	-9.3134	-46.0445	
551	97	2	0.4238	24.3504	-8.3706	-46.0445	
552	98	1	-0.8476	-26.3507	-5.917	-45.9582	
553	98	2	0.4238	-25.3507	-5.917	-45.9582	
554	98	2	0.4238	-26.684	-4.9742	-45.9582	
555	99	1	-0.8476	-22.9199	-5.9021	-45.9929	
556	99	2	0.4238	-21.9199	-5.9021	-45.9929	
557	99	2	0.4238	-23.2532	-4.9593	-45.9929	
558	100	1	-0.8476	-19.5936	-5.9914	-45.9523	
559	100	2	0.4238	-18.5936	-5.9914	-45.9523	
560	100	2	0.4238	-19.9269	-5.0486	-45.9523	
561	101	1	-0.8476	-16.1551	-5.9106	-45.9589	
562	101	2	0.4238	-15.1551	-5.9106	-45.9589	
563	101	2	0.4238	-16.4884	-4.9678	-45.9589	
564	102	1	-0.8476	-12.7039	-5.9222	-45.9552	
565	102	2	0.4238	-11.7039	-5.9222	-45.9552	
566	102	2	0.4238	-13.0372	-4.9794	-45.9552	
567	103	1	-0.8476	-9.3321	-5.9286	-46.0362	
568	103	2	0.4238	-8.3321	-5.9286	-46.0362	
569	103	2	0.4238	-9.6654	-4.9858	-46.0362	
570	104	1	-0.8476	-5.9917	-5.9888	-46.0131	
571	104	2	0.4238	-4.9917	-5.9888	-46.0131	
572	104	2	0.4238	-6.325	-5.046	-46.0131	
573	105	1	-0.8476	-2.5035	-5.9638	-45.957	
574	105	2	0.4238	-1.5035	-5.9638	-45.957	
575	105	2	0.4238	-2.8368	-5.021	-45.957	
576	106	1	-0.8476	0.8096	-5.9878	-46.0011	
577	106	2	0.4238	1.8096	-5.9878	-46.0011	
578	106	2	0.4238	0.47629	-5.045	-46.0011	
579	107	1	-0.8476	4.2923	-5.9865	-46.0356	
580	107	2	0.4238	5.2923	-5.9865	-46.0356	
581	107	2	0.4238	3.9589	-5.0437	-46.0356	
582	108	1	-0.8476	7.6333	-5.9545	-46.0492	
583	108	2	0.4238	8.6333	-5.9545	-46.0492	
584	108	2	0.4238	7.3	-5.0117	-46.0492	
585	109	1	-0.8476	11.0408	-5.9819	-45.9627	
586	109	2	0.4238	12.0408	-5.9819	-45.9627	
587	109	2	0.4238	10.7075	-5.0391	-45.9627	
588	110	1	-0.8476	14.4549	-5.9139	-46.0447	
589	110	2	0.4238	15.4549	-5.9139	-46.0447	
590	110	2	0.4238	14.1216	-4.9711	-46.0447	
591	111	1	-0.8476	17.8511	-5.9854	-46.0061	
592	111	2	0.4238	18.8511	-5.9854	-46.0061	
593	111	2	0.4238	17.5178	-5.0426	-46.0061	
594	112	1	-0.8476	21.2455	-5.9682	-45.9574	
595	112	2	0.4238	22.2455	-5.9682	-45.9574	
596	112	2	0.4238	20.9122	-5.0254	-45.9574	
597	113	1	-0.8476	24.6722	-5.9363	-45.9554	
598	113	2	0.4238	25.6722	-5.9363	-45.9554	
599	113	2	0.4238	24.3388	-4.9935	-45.9554	
600	114	1	-0.8476	-26.327	-2.5478	-45.9853	
601	114	2	0.4238	-25.327	-2.5478	-45.9853	
602	114	2	0.4238	-26.6603	-1.605	-45.9853	
603	115	1	-0.8476	-22.9264	-2.5129	-45.9633	
604	115	2	0.4238	-21.9264	-2.5129	-45.9633	
605	115	2	0.4238	-23.2597	-1.5701	-45.9633	
606	116	1	-0.8476	-19.5771	-2.5699	-46.009	
607	116	2	0.4238	-18.5771	-2.5699	-46.009	
608	116	2	0.4238	-19.9104	-1.6271	-46.009	
609	117	1	-0.8476	-16.1808	-2.5805	-46.035	
610	117	2	0.4238	-15.1808	-2.5805	-46.035	
611	117	2	0.4238	-16.5141	-1.6377	-46.035	
612	118	1	-0.8476	-12.7145	-2.5069	-45.972	
613	118	2	0.4238	-11.7145	-2.5069	-45.972	
614	118	2	0.4238	-13.0478	-1.5641	-45.972	
615	119	1	-0.8476	-9.3842	-2.5271	-46.0306	
616	119	2	0.4238	-8.3842	-2.5271	-46.0306	
617	119	2	0.4238	-9.7175	-1.5843	-46.0306	
618	120	1	-0.8476	-5.9542	-2.5145	-46.0368	
619	120	2	0.4238	-4.9542	-2.5145	-46.0368	
620	120	2	0.4238	-6.2875	-1.5717	-46.0368	
621	121	1	-0.8476	-2.5386	-2.5362	-45.9748	
622	121	2	0.4238	-1.5386	-2.5362	-45.9748	
623	121	2	0.4238	-2.8719	-1.5934	-45.9748	
624	122	1	-0.8476	0.82567	-2.5451	-45.9562	
625	122	2	0.4238	1.8257	-2.5451	-45.9562	
626	122	2	0.4238	0.49236	-1.6023	-45.9562	
627	123	1	-0.8476	4.295	-2.5394	-45.9689	
628	123	2	0.4238	5.295	-2.5394	-45.9689	
629	123	2	0.4238	3.9617	-1.5966	-45.9689	
630	124	1	-0.8476	7.6315	-2.5728	-46.0071	
631	124	2	0.4238	8.6315	-2.5728	-46.0071	
632	124	2	0.4238	7.2982	-1.63	-46.0071	
633	125	1	-0.8476	11.0747	-2.5535	-45.9516	
634	125	2	0.4238	12.0747	-2.5535	-45.9516	
635	125	2	0.4238	10.7414	-1.6107	-45.9516	
636	126	1	-0.8476	14.4849	-2.5678	-46.0321	
637	126	2	0.4238	15.4849	-2.5678	-46.0321	
638	126	2	0.4238	14.1516	-1.625	-46.0321	
639	127	1	-0.8476	17.8855	-2.514	-46.0395	
640	127	2	0.4238	18.8855	-2.514	-46.0395	
641	127	2	0.4238	17.5522	-1.5712	-46.0395	
642	128	1	-0.8476	21.2761	-2.5861	-45.9893	
643	128	2	0.4238	22.2761	-2.5861	-45.9893	
644	128	2	0.4238	20.9427	-1.6433	-45.9893	
645	129	1	-0.8476	24.6793	-2.5788	-46.0468	
646	129	2	0.4238	25.6793	-2.5788	-46.0468	
647	129	2	0.4238	24.346	-1.636	-46.0468	
648	130	1	-0.8476	-26.3197	0.80393	-45.9759	
649	130	2	0.4238	-25.3197	0.80393	-45.9759	
650	130	2	0.4238	-26.653	1.7467	-45.9759	
651	131	1	-0.8476	-22.9661	0.84161	-46.0306	
652	131	2	0.4238	-21.9661	0.84161	-46.0306	
653	131	2	0.4238	-23.2994	1.7844	-46.0306	
654	132	1	-0.8476	-19.5053	0.81356	-46.0031	
655	132	2	0.4238	-18.5053	0.81356	-46.0031	
656	132	2	0.4238	-19.8386	1.7564	-46.0031	
657	133	1	-0.8476	-16.1149	0.82468	-46.0069	
658	133	2	0.4238	-15.1149	0.82468	-46.0069	
659	133	2	0.4238	-16.4482	1.7675	-46.0069	
660	134	1	-0.8476	-12.7006	0.89277	-46.0457	
661	134	2	0.4238	-11.7006	0.89277	-46.0457	
662	134	2	0.4238	-13.0339	1.8356	-46.0457	
663	135	1	-0.8476	-9.3452	0.80015	-45.9775	
664	135	2	0.4238	-8.3452	0.80015	-45.9775	
665	135	2	0.4238	-9.6785	1.7429	-45.9775	
666	136	1	-0.8476	-5.9381	0.83723	-46.0206	
667	136	2	0.4238	-4.9381	0.83723	-46.0206	
668	136	2	0.4238	-6.2714	1.78	-46.0206	
669	137	1	-0.8476	-2.5945	0.87007	-45.9607	
670	137	2	0.4238	-1.5945	0.87007	-45.9607	
671	137	2	0.4238	-2.9278	1.8129	-45.9607	
672	138	1	-0.8476	0.8726	0.85855	-45.9548	
673	138	2	0.4238	1.8726	0.85855	-45.9548	
674	138	2	0.4238	0.53929	1.8014	-45.9548	
675	139	1	-0.8476	4.2361	0.80913	-46.0013	
676	139	2	0.4238	5.2361	0.80913	-46.0013	
677	139	2	0.4238	3.9028	1.7519	-46.0013	
678	140	1	-0.8476	7.6166	0.82573	-46.0498	
679	140	2	0.4238	8.6166	0.82573	-46.0498	
680	140	2	0.4238	7.2832	1.7685	-46.0498	
681	141	1	-0.8476	11.0763	0.87638	-46.0484	
682	141	2	0.4238	12.0763	0.87638	-46.0484	
683	141	2	0.4238	10.743	1.8192	-46.0484	
684	142	1	-0.8476	14.4124	0.80804	-46.0422	
685	142	2	0.4238	15.4124	0.80804	-46.0422	
686	142	2	0.4238	14.0791	1.7508	-46.0422	
687	143	1	-0.8476	17.8591	0.84961	-46.0007	
688	143	2	0.4238	18.8591	0.84961	-46.0007	
689	143	2	0.4238	17.5258	1.7924	-46.0007	
690	144	1	-0.8476	21.2648	0.88407	-46.0483	
691	144	2	0.4238	22.2648	0.88407	-46.0483	
692	144	2	0.4238	20.9315	1.8269	-46.0483	
693	145	1	-0.8476	24.6844	0.87719	-46.0211	
694	145	2	0.4238	25.6844	0.87719	-46.0211	
695	145	2	0.4238	24.3511	1.82	-46.0211	
696	146	1	-0.8476	-26.3299	4.2913	-45.9555	
697	146	2	0.4238	-25.3299	4.2913	-45.9555	
698	146	2	0.4238	-26.6632	5.2341	-45.9555	
699	147	1	-0.8476	-22.9732	4.2154	-46.0129	
700	147	2	0.4238	-21.9732	4.2154	-46.0129	
701	147	2	0.4238	-23.3065	5.1582	-46.0129	
702	148	1	-0.8476	-19.5777	4.2026	-46.0319	
703	148	2	0.4238	-18.5777	4.2026	-46.0319	
704	148	2	0.4238	-19.911	5.1454	-46.0319	
705	149	1	-0.8476	-16.1756	4.2997	-45.9845	
706	149	2	0.4238	-15.1756	4.2997	-45.9845	
707	149	2	0.4238	-16.5089	5.2425	-45.9845	
708	150	1	-0.8476	-12.7882	4.2825	-45.9769	
709	150	2	0.4238	-11.7882	4.2825	-45.9769	
710	150	2	0.4238	-13.1215	5.2253	-45.9769	
711	151	1	-0.8476	-9.3286	4.2557	-46.0119	
712	151	2	0.4238	-8.3286	4.2557	-46.0119	
713	151	2	0.4238	-9.6619	5.1985	-46.0119	
714	152	1	-0.8476	-5.9653	4.2085	-46.0288	
715	152	2	0.4238	-4.9653	4.2085	-46.0288	
716	152	2	0.4238	-6.2986	5.1513	-46.0288	
717	153	1	-0.8476	-2.5911	4.276	-46.043	
718	153	2	0.4238	-1.5911	4.276	-46.043	
719	153	2	0.4238	-2.9245	5.2188	-46.043	
720	154	1	-0.8476	0.85858	4.2283	-45.9978	
721	154	2	0.4238	1.8586	4.2283	-45.9978	
722	154	2	0.4238	0.52527	5.1711	-45.9978	
723	155	1	-0.8476	4.2974	4.2684	-46.0099	
724	155	2	0.4238	5.2974	4.2684	-46.0099	
725	155	2	0.4238	3.9641	5.2112	-46.0099	
726	156	1	-0.8476	7.6105	4.2415	-45.9952	
727	156	2	0.4238	8.6105	4.2415	-45.9952	
728	156	2	0.4238	7.2772	5.1843	-45.9952	
729	157	1	-0.8476	11.0231	4.2006	-45.9959	
730	157	2	0.4238	12.0231	4.2006	-45.9959	
731	157	2	0.4238	10.6898	5.1434	-45.9959	
732	158	1	-0.8476	14.488	4.2378	-45.9674	
733	158	2	0.4238	15.488	4.2378	-45.9674	
734	158	2	0.4238	14.1547	5.1806	-45.9674	
735	159	1	-0.8476	17.8153	4.26	-45.9662	
736	159	2	0.4238	18.8153	4.26	-45.9662	
737	159	2	0.4238	17.482	5.2028	-45.9662	
738	160	1	-0.8476	21.2322	4.2406	-46.0085	
739	160	2	0.4238	22.2322	4.2406	-46.0085	
740	160	2	0.4238	20.8989	5.1834	-46.0085	
741	161	1	-0.8476	24.6578	4.2129	-46.0396	
742	161	2	0.4238	25.6578	4.2129	-46.0396	
743	161	2	0.4238	24.3245	5.1557	-46.0396	
744	162	1	-0.8476	-26.3856	7.644	-46.0028	
745	162	2	0.4238	-25.3856	7.644	-46.0028	
746	162	2	0.4238	-26.719	8.5868	-46.0028	
747	163	1	-0.8476	-22.9313	7.6359	-46.0191	
748	163	2	0.4238	-21.9313	7.6359	-46.0191	
749	163	2	0.4238	-23.2646	8.5787	-46.0191	
750	164	1	-0.8476	-19.5959	7.6948	-46.0425	
751	164	2	0.4238	-18.5959	7.6948	-46.0425	
752	164	2	0.4238	-19.9292	8.6376	-46.0425	
753	165	1	-0.8476	-16.105	7.6232	-46.0415	
754	165	2	0.4238	-15.105	7.6232	-46.0415	
755	165	2	0.4238	-16.4383	8.566	-46.0415	
756	166	1	-0.8476	-12.7271	7.6754	-45.9605	
757	166	2	0.4238	-11.7271	7.6754	-45.9605	
758	166	2	0.4238	-13.0605	8.6182	-45.9605	
759	167	1	-0.8476	-9.3397	7.6482	-46.0179	
760	167	2	0.4238	-8.3397	7.6482	-46.0179	
761	167	2	0.4238	-9.673	8.591	-46.0179	