# System

13763 atoms
9330 bonds
5113 angles
1193 dihedrals
147 impropers

15 atom types
8 bond types
14 angle types
15 dihedral types
1 improper types
extra bond per atom 2
extra angle per atom 1
extra special per atom 2
-27.2         27.2 xlo xhi
-27.2         27.2 ylo yhi
-50  50 zlo zhi

Atoms

1	1	3	-0.115	0	-9.1962	10.198	
2	1	3	-0.115	0	-9.9036	11.4233	
3	1	3	0	0	-9.1962	12.6485	
4	1	3	-0.115	0	-9.9036	13.8738	
5	1	3	0	0	-9.1962	15.099	
6	1	3	-0.115	0	-9.9036	16.3243	
7	1	3	0	0	-9.1962	17.5495	
8	1	3	-0.115	0	-9.9036	18.7748	
9	1	3	0	0	-9.1962	20	
10	1	13	0.15	0	-9.9036	21.2253	
11	1	3	0	0	-9.1962	22.4505	
12	1	3	-0.115	0	-9.9036	23.6758	
13	1	3	0	0	-9.1962	24.901	
14	1	13	0.15	0	-9.9036	26.1263	
15	1	3	0	0	-9.1962	27.3515	
16	1	3	-0.115	0	-9.9036	28.5768	
17	1	3	-0.115	0	-9.1962	29.802	
18	1	13	0.15	0	-7.7814	10.198	
19	1	3	0	0	-7.074	11.4233	
20	1	3	0	0	-7.7814	12.6485	
21	1	3	0	0	-7.074	13.8738	
22	1	3	0	0	-7.7814	15.099	
23	1	3	0	0	-7.074	16.3243	
24	1	3	0	0	-7.7814	17.5495	
25	1	3	0	0	-7.074	18.7748	
26	1	5	0.265	0	-7.7814	20	
27	1	5	0.265	0	-7.074	21.2253	
28	1	3	0	0	-7.7814	22.4505	
29	1	3	0	0	-7.074	23.6758	
30	1	3	0	0	-7.7814	24.901	
31	1	3	0	0	-7.074	26.1263	
32	1	3	0	0	-7.7814	27.3515	
33	1	3	0	0	-7.074	28.5768	
34	1	3	-0.115	0	-7.7814	29.802	
35	1	13	0.15	0	-4.9518	10.198	
36	1	5	0.265	0	-5.6592	11.4233	
37	1	5	0.265	0	-4.9518	12.6485	
38	1	5	0.265	0	-5.6592	13.8738	
39	1	5	0.265	0	-4.9518	15.099	
40	1	3	0	0	-5.6592	16.3243	
41	1	5	0.265	0	-4.9518	17.5495	
42	1	3	0	0	-5.6592	18.7748	
43	1	5	0.265	0	-4.9518	20	
44	1	5	0.265	0	-5.6592	21.2253	
45	1	3	0	0	-4.9518	22.4505	
46	1	3	0	0	-5.6592	23.6758	
47	1	3	0	0	-4.9518	24.901	
48	1	3	0	0	-5.6592	26.1263	
49	1	3	0	0	-4.9518	27.3515	
50	1	3	0	0	-5.6592	28.5768	
51	1	13	0.15	0	-4.9518	29.802	
52	1	3	-0.115	0	-3.537	10.198	
53	1	3	0	0	-2.8296	11.4233	
54	1	3	0	0	-3.537	12.6485	
55	1	3	0	0	-2.8296	13.8738	
56	1	5	0.265	0	-3.537	15.099	
57	1	5	0.265	0	-2.8296	16.3243	
58	1	5	0.265	0	-3.537	17.5495	
59	1	5	0.265	0	-2.8296	18.7748	
60	1	3	0	0	-3.537	20	
61	1	3	0	0	-2.8296	21.2253	
62	1	3	0	0	-3.537	22.4505	
63	1	3	0	0	-2.8296	23.6758	
64	1	3	0	0	-3.537	24.901	
65	1	3	0	0	-2.8296	26.1263	
66	1	3	0	0	-3.537	27.3515	
67	1	3	0	0	-2.8296	28.5768	
68	1	3	-0.115	0	-3.537	29.802	
69	1	3	-0.115	0	-0.7074	10.198	
70	1	3	0	0	-1.4148	11.4233	
71	1	3	0	0	-0.7074	12.6485	
72	1	5	0.265	0	-1.4148	13.8738	
73	1	5	0.265	0	-0.7074	15.099	
74	1	3	0	0	-1.4148	16.3243	
75	1	5	0.265	0	-0.7074	17.5495	
76	1	3	0	0	-1.4148	18.7748	
77	1	3	0	0	-0.7074	20	
78	1	3	0	0	-1.4148	21.2253	
79	1	3	0	0	-0.7074	22.4505	
80	1	3	0	0	-1.4148	23.6758	
81	1	3	0	0	-0.7074	24.901	
82	1	3	0	0	-1.4148	26.1263	
83	1	3	0	0	-0.7074	27.3515	
84	1	3	0	0	-1.4148	28.5768	
85	1	13	0.15	0	-0.7074	29.802	
86	1	3	-0.115	0	0.7074	10.198	
87	1	3	0	0	1.4148	11.4233	
88	1	5	0.265	0	0.7074	12.6485	
89	1	5	0.265	0	1.4148	13.8738	
90	1	3	0	0	0.7074	15.099	
91	1	3	0	0	1.4148	16.3243	
92	1	5	0.265	0	0.7074	17.5495	
93	1	3	0	0	1.4148	18.7748	
94	1	3	0	0	0.7074	20	
95	1	3	0	0	1.4148	21.2253	
96	1	3	0	0	0.7074	22.4505	
97	1	3	0	0	1.4148	23.6758	
98	1	3	0	0	0.7074	24.901	
99	1	3	0	0	1.4148	26.1263	
100	1	3	0	0	0.7074	27.3515	
101	1	3	0	0	1.4148	28.5768	
102	1	3	-0.115	0	0.7074	29.802	
103	1	13	0.15	0	3.537	10.198	
104	1	3	0	0	2.8296	11.4233	
105	1	3	0	0	3.537	12.6485	
106	1	3	0	0	2.8296	13.8738	
107	1	5	0.265	0	3.537	15.099	
108	1	5	0.265	0	2.8296	16.3243	
109	1	3	0	0	3.537	17.5495	
110	1	3	0	0	2.8296	18.7748	
111	1	3	0	0	3.537	20	
112	1	3	0	0	2.8296	21.2253	
113	1	3	0	0	3.537	22.4505	
114	1	3	0	0	2.8296	23.6758	
115	1	3	0	0	3.537	24.901	
116	1	3	0	0	2.8296	26.1263	
117	1	3	0	0	3.537	27.3515	
118	1	3	0	0	2.8296	28.5768	
119	1	3	-0.115	0	3.537	29.802	
120	1	13	0.15	0	4.9518	10.198	
121	1	3	0	0	5.6592	11.4233	
122	1	3	0	0	4.9518	12.6485	
123	1	3	0	0	5.6592	13.8738	
124	1	3	0	0	4.9518	15.099	
125	1	5	0.265	0	5.6592	16.3243	
126	1	5	0.265	0	4.9518	17.5495	
127	1	3	0	0	5.6592	18.7748	
128	1	3	0	0	4.9518	20	
129	1	3	0	0	5.6592	21.2253	
130	1	3	0	0	4.9518	22.4505	
131	1	3	0	0	5.6592	23.6758	
132	1	3	0	0	4.9518	24.901	
133	1	3	0	0	5.6592	26.1263	
134	1	3	0	0	4.9518	27.3515	
135	1	3	0	0	5.6592	28.5768	
136	1	3	-0.115	0	4.9518	29.802	
137	1	3	-0.115	0	7.7814	10.198	
138	1	3	0	0	7.074	11.4233	
139	1	3	0	0	7.7814	12.6485	
140	1	3	0	0	7.074	13.8738	
141	1	3	0	0	7.7814	15.099	
142	1	3	0	0	7.074	16.3243	
143	1	3	0	0	7.7814	17.5495	
144	1	3	0	0	7.074	18.7748	
145	1	3	0	0	7.7814	20	
146	1	3	0	0	7.074	21.2253	
147	1	3	0	0	7.7814	22.4505	
148	1	3	0	0	7.074	23.6758	
149	1	3	0	0	7.7814	24.901	
150	1	3	0	0	7.074	26.1263	
151	1	3	0	0	7.7814	27.3515	
152	1	3	0	0	7.074	28.5768	
153	1	3	-0.115	0	7.7814	29.802	
154	1	3	-0.115	0	9.1962	10.198	
155	1	3	-0.115	0	9.9036	11.4233	
156	1	3	0	0	9.1962	12.6485	
157	1	3	-0.115	0	9.9036	13.8738	
158	1	3	0	0	9.1962	15.099	
159	1	3	-0.115	0	9.9036	16.3243	
160	1	3	0	0	9.1962	17.5495	
161	1	3	-0.115	0	9.9036	18.7748	
162	1	3	0	0	9.1962	20	
163	1	3	-0.115	0	9.9036	21.2253	
164	1	3	0	0	9.1962	22.4505	
165	1	13	0.15	0	9.9036	23.6758	
166	1	3	0	0	9.1962	24.901	
167	1	13	0.15	0	9.9036	26.1263	
168	1	3	0	0	9.1962	27.3515	
169	1	3	-0.115	0	9.9036	28.5768	
170	1	13	0.15	0	9.1962	29.802	
171	1	4	0.115	0	-10.9806	11.4233	
172	1	4	0.115	0	-10.9806	13.8738	
173	1	4	0.115	0	-10.9806	16.3243	
174	1	4	0.115	0	-10.9806	18.7748	
175	1	9	-0.585	0	-11.3036	21.2253	
176	1	4	0.115	0	-10.9806	23.6758	
177	1	9	-0.585	0	-11.3036	26.1263	
178	1	4	0.115	0	-10.9806	28.5768	
179	1	4	0.115	0	10.9806	11.4233	
180	1	4	0.115	0	10.9806	13.8738	
181	1	4	0.115	0	10.9806	16.3243	
182	1	4	0.115	0	10.9806	18.7748	
183	1	4	0.115	0	10.9806	21.2253	
184	1	9	-0.585	0	11.3036	23.6758	
185	1	9	-0.585	0	11.3036	26.1263	
186	1	4	0.115	0	10.9806	28.5768	
187	1	4	0.115	0	-9.7347	9.2653	
188	1	9	-0.585	0	-7.0814	8.9856	
189	1	4	0.115	0	-9.7347	30.7348	
190	1	4	0.115	0	-7.2429	30.7348	
191	1	9	-0.585	0	-5.6518	8.9856	
192	1	4	0.115	0	-2.9985	9.2653	
193	1	9	-0.585	0	-5.6518	31.0145	
194	1	4	0.115	0	-2.9985	30.7348	
195	1	4	0.115	0	-1.2459	9.2653	
196	1	4	0.115	0	1.2459	9.2653	
197	1	9	-0.585	0	-1.4074	31.0145	
198	1	4	0.115	0	1.2459	30.7348	
199	1	9	-0.585	0	2.837	8.9856	
200	1	9	-0.585	0	5.6518	8.9856	
201	1	4	0.115	0	2.9985	30.7348	
202	1	4	0.115	0	5.4903	30.7348	
203	1	4	0.115	0	7.2429	9.2653	
204	1	4	0.115	0	9.7347	9.2653	
205	1	4	0.115	0	7.2429	30.7348	
206	1	9	-0.585	0	9.8962	31.0145	
207	1	7	0.435	-0.7	-12.0036	21.2253	
208	1	7	0.435	-0.7	-12.0036	26.1263	
209	1	7	0.435	-0.7	12.0036	23.6758	
210	1	7	0.435	0.7	12.0036	26.1263	
211	1	7	0.435	-0.7	-6.7314	8.3793	
212	1	7	0.435	-0.7	-6.0018	8.3793	
213	1	7	0.435	-0.7	-6.0018	31.6207	
214	1	7	0.435	-0.7	-1.7574	31.6207	
215	1	7	0.435	0.7	2.487	8.3793	
216	1	7	0.435	0.7	6.0018	8.3793	
217	1	7	0.435	0.7	10.2462	31.6207	
218	1	6	-0.683	1.4	-4.9518	12.6485	
219	1	7	0.418	2.4	-4.9518	12.6485	
220	1	6	-0.683	-1.4	-5.6592	11.4233	
221	1	7	0.418	-2.4	-5.6592	11.4233	
222	1	6	-0.683	1.4	-5.6592	13.8738	
223	1	7	0.418	2.4	-5.6592	13.8738	
224	1	6	-0.683	-1.4	-1.4148	13.8738	
225	1	7	0.418	-2.4	-1.4148	13.8738	
226	1	6	-0.683	-1.4	-4.9518	15.099	
227	1	7	0.418	-2.4	-4.9518	15.099	
228	1	6	-0.683	1.4	-2.8296	16.3243	
229	1	7	0.418	2.4	-2.8296	16.3243	
230	1	6	-0.683	1.4	0.7074	12.6485	
231	1	7	0.418	2.4	0.7074	12.6485	
232	1	6	-0.683	-1.4	-0.7074	15.099	
233	1	7	0.418	-2.4	-0.7074	15.099	
234	1	6	-0.683	1.4	0.7074	17.5495	
235	1	7	0.418	2.4	0.7074	17.5495	
236	1	6	-0.683	-1.4	1.4148	13.8738	
237	1	7	0.418	-2.4	1.4148	13.8738	
238	1	6	-0.683	1.4	-0.7074	17.5495	
239	1	7	0.418	2.4	-0.7074	17.5495	
240	1	6	-0.683	-1.4	-3.537	17.5495	
241	1	7	0.418	-2.4	-3.537	17.5495	
242	1	6	-0.683	1.4	-4.9518	17.5495	
243	1	7	0.418	2.4	-4.9518	17.5495	
244	1	6	-0.683	-1.4	-4.9518	20	
245	1	7	0.418	-2.4	-4.9518	20	
246	1	6	-0.683	-1.4	-3.537	15.099	
247	1	7	0.418	-2.4	-3.537	15.099	
248	1	6	-0.683	-1.4	2.8296	16.3243	
249	1	7	0.418	-2.4	2.8296	16.3243	
250	1	6	-0.683	1.4	-7.7814	20	
251	1	7	0.418	2.4	-7.7814	20	
252	1	6	-0.683	1.4	3.537	15.099	
253	1	7	0.418	2.4	3.537	15.099	
254	1	6	-0.683	1.4	4.9518	17.5495	
255	1	7	0.418	2.4	4.9518	17.5495	
256	1	6	-0.683	-1.4	-7.074	21.2253	
257	1	7	0.418	-2.4	-7.074	21.2253	
258	1	6	-0.683	1.4	5.6592	16.3243	
259	1	7	0.418	2.4	5.6592	16.3243	
260	1	6	-0.683	1.4	-5.6592	21.2253	
261	1	7	0.418	2.4	-5.6592	21.2253	
262	1	6	-0.683	-1.4	-2.8296	18.7748	
263	1	7	0.418	-2.4	-2.8296	18.7748	
264	2	1	-0.8476	-26.3863	-26.3511	-45.9638	
265	2	2	0.4238	-25.3863	-26.3511	-45.9638	
266	2	2	0.4238	-26.7196	-25.4083	-45.9638	
267	3	1	-0.8476	-22.9786	-26.3975	-45.981	
268	3	2	0.4238	-21.9786	-26.3975	-45.981	
269	3	2	0.4238	-23.312	-25.4547	-45.981	
270	4	1	-0.8476	-19.5701	-26.3966	-46.0099	
271	4	2	0.4238	-18.5701	-26.3966	-46.0099	
272	4	2	0.4238	-19.9034	-25.4538	-46.0099	
273	5	1	-0.8476	-16.1897	-26.3967	-46.0042	
274	5	2	0.4238	-15.1897	-26.3967	-46.0042	
275	5	2	0.4238	-16.523	-25.4539	-46.0042	
276	6	1	-0.8476	-12.7153	-26.315	-46.0359	
277	6	2	0.4238	-11.7153	-26.315	-46.0359	
278	6	2	0.4238	-13.0486	-25.3722	-46.0359	
279	7	1	-0.8476	-9.3068	-26.3884	-46.0373	
280	7	2	0.4238	-8.3068	-26.3884	-46.0373	
281	7	2	0.4238	-9.6402	-25.4456	-46.0373	
282	8	1	-0.8476	-5.9873	-26.3802	-45.9826	
283	8	2	0.4238	-4.9873	-26.3802	-45.9826	
284	8	2	0.4238	-6.3206	-25.4374	-45.9826	
285	9	1	-0.8476	-2.5513	-26.3238	-45.9691	
286	9	2	0.4238	-1.5513	-26.3238	-45.9691	
287	9	2	0.4238	-2.8846	-25.381	-45.9691	
288	10	1	-0.8476	0.80197	-26.3983	-45.9882	
289	10	2	0.4238	1.802	-26.3983	-45.9882	
290	10	2	0.4238	0.46866	-25.4555	-45.9882	
291	11	1	-0.8476	4.2949	-26.3319	-46.0447	
292	11	2	0.4238	5.2949	-26.3319	-46.0447	
293	11	2	0.4238	3.9616	-25.3891	-46.0447	
294	12	1	-0.8476	7.6207	-26.385	-45.9654	
295	12	2	0.4238	8.6207	-26.385	-45.9654	
296	12	2	0.4238	7.2874	-25.4422	-45.9654	
297	13	1	-0.8476	11.051	-26.356	-46.0231	
298	13	2	0.4238	12.051	-26.356	-46.0231	
299	13	2	0.4238	10.7177	-25.4132	-46.0231	
300	14	1	-0.8476	14.4596	-26.347	-45.9992	
301	14	2	0.4238	15.4596	-26.347	-45.9992	
302	14	2	0.4238	14.1263	-25.4042	-45.9992	
303	15	1	-0.8476	17.8751	-26.3155	-46.014	
304	15	2	0.4238	18.8751	-26.3155	-46.014	
305	15	2	0.4238	17.5417	-25.3727	-46.014	
306	16	1	-0.8476	21.2426	-26.3388	-45.9666	
307	16	2	0.4238	22.2426	-26.3388	-45.9666	
308	16	2	0.4238	20.9093	-25.396	-45.9666	
309	17	1	-0.8476	24.6345	-26.3222	-46.0273	
310	17	2	0.4238	25.6345	-26.3222	-46.0273	
311	17	2	0.4238	24.3012	-25.3794	-46.0273	
312	18	1	-0.8476	-26.3223	-22.968	-45.9795	
313	18	2	0.4238	-25.3223	-22.968	-45.9795	
314	18	2	0.4238	-26.6556	-22.0252	-45.9795	
315	19	1	-0.8476	-22.9353	-22.9283	-46.0019	
316	19	2	0.4238	-21.9353	-22.9283	-46.0019	
317	19	2	0.4238	-23.2686	-21.9855	-46.0019	
318	20	1	-0.8476	-19.5323	-22.9707	-46.0349	
319	20	2	0.4238	-18.5323	-22.9707	-46.0349	
320	20	2	0.4238	-19.8656	-22.0279	-46.0349	
321	21	1	-0.8476	-16.1502	-22.9658	-46.0312	
322	21	2	0.4238	-15.1502	-22.9658	-46.0312	
323	21	2	0.4238	-16.4835	-22.023	-46.0312	
324	22	1	-0.8476	-12.7216	-22.9578	-45.9552	
325	22	2	0.4238	-11.7216	-22.9578	-45.9552	
326	22	2	0.4238	-13.0549	-22.015	-45.9552	
327	23	1	-0.8476	-9.3436	-22.9567	-46.0119	
328	23	2	0.4238	-8.3436	-22.9567	-46.0119	
329	23	2	0.4238	-9.6769	-22.0139	-46.0119	
330	24	1	-0.8476	-5.9805	-22.919	-46.03	
331	24	2	0.4238	-4.9805	-22.919	-46.03	
332	24	2	0.4238	-6.3138	-21.9762	-46.03	
333	25	1	-0.8476	-2.5512	-22.9723	-45.9914	
334	25	2	0.4238	-1.5512	-22.9723	-45.9914	
335	25	2	0.4238	-2.8845	-22.0295	-45.9914	
336	26	1	-0.8476	0.8092	-22.9804	-45.9868	
337	26	2	0.4238	1.8092	-22.9804	-45.9868	
338	26	2	0.4238	0.47589	-22.0376	-45.9868	
339	27	1	-0.8476	4.2065	-22.9025	-46.0115	
340	27	2	0.4238	5.2065	-22.9025	-46.0115	
341	27	2	0.4238	3.8732	-21.9597	-46.0115	
342	28	1	-0.8476	7.6358	-22.9488	-45.9567	
343	28	2	0.4238	8.6358	-22.9488	-45.9567	
344	28	2	0.4238	7.3025	-22.006	-45.9567	
345	29	1	-0.8476	11.0135	-22.9525	-45.9864	
346	29	2	0.4238	12.0135	-22.9525	-45.9864	
347	29	2	0.4238	10.6801	-22.0097	-45.9864	
348	30	1	-0.8476	14.4753	-22.9062	-46.0165	
349	30	2	0.4238	15.4753	-22.9062	-46.0165	
350	30	2	0.4238	14.142	-21.9634	-46.0165	
351	31	1	-0.8476	17.8013	-22.9758	-45.9785	
352	31	2	0.4238	18.8013	-22.9758	-45.9785	
353	31	2	0.4238	17.468	-22.033	-45.9785	
354	32	1	-0.8476	21.2586	-22.9762	-45.9544	
355	32	2	0.4238	22.2586	-22.9762	-45.9544	
356	32	2	0.4238	20.9253	-22.0334	-45.9544	
357	33	1	-0.8476	24.6822	-22.9635	-46.0005	
358	33	2	0.4238	25.6822	-22.9635	-46.0005	
359	33	2	0.4238	24.3489	-22.0207	-46.0005	
360	34	1	-0.8476	-26.3425	-19.5657	-45.9558	
361	34	2	0.4238	-25.3425	-19.5657	-45.9558	
362	34	2	0.4238	-26.6758	-18.6229	-45.9558	
363	35	1	-0.8476	-22.9242	-19.5775	-46.0457	
364	35	2	0.4238	-21.9242	-19.5775	-46.0457	
365	35	2	0.4238	-23.2575	-18.6347	-46.0457	
366	36	1	-0.8476	-19.5685	-19.5611	-46.0234	
367	36	2	0.4238	-18.5685	-19.5611	-46.0234	
368	36	2	0.4238	-19.9018	-18.6183	-46.0234	
369	37	1	-0.8476	-16.1577	-19.5925	-45.9695	
370	37	2	0.4238	-15.1577	-19.5925	-45.9695	
371	37	2	0.4238	-16.491	-18.6497	-45.9695	
372	38	1	-0.8476	-12.7028	-19.5547	-45.9881	
373	38	2	0.4238	-11.7028	-19.5547	-45.9881	
374	38	2	0.4238	-13.0361	-18.6119	-45.9881	
375	39	1	-0.8476	-9.3519	-19.5273	-45.9731	
376	39	2	0.4238	-8.3519	-19.5273	-45.9731	
377	39	2	0.4238	-9.6852	-18.5845	-45.9731	
378	40	1	-0.8476	-5.967	-19.5949	-45.9887	
379	40	2	0.4238	-4.967	-19.5949	-45.9887	
380	40	2	0.4238	-6.3004	-18.6521	-45.9887	
381	41	1	-0.8476	-2.5795	-19.548	-45.9656	
382	41	2	0.4238	-1.5795	-19.548	-45.9656	
383	41	2	0.4238	-2.9129	-18.6052	-45.9656	
384	42	1	-0.8476	0.83629	-19.5025	-46.0026	
385	42	2	0.4238	1.8363	-19.5025	-46.0026	
386	42	2	0.4238	0.50298	-18.5597	-46.0026	
387	43	1	-0.8476	4.2081	-19.5375	-45.9908	
388	43	2	0.4238	5.2081	-19.5375	-45.9908	
389	43	2	0.4238	3.8748	-18.5947	-45.9908	
390	44	1	-0.8476	7.6963	-19.5338	-46.043	
391	44	2	0.4238	8.6963	-19.5338	-46.043	
392	44	2	0.4238	7.363	-18.591	-46.043	
393	45	1	-0.8476	11.0549	-19.5448	-46.0197	
394	45	2	0.4238	12.0549	-19.5448	-46.0197	
395	45	2	0.4238	10.7216	-18.602	-46.0197	
396	46	1	-0.8476	14.4409	-19.5054	-46.0284	
397	46	2	0.4238	15.4409	-19.5054	-46.0284	
398	46	2	0.4238	14.1076	-18.5626	-46.0284	
399	47	1	-0.8476	17.8609	-19.5719	-46.0296	
400	47	2	0.4238	18.8609	-19.5719	-46.0296	
401	47	2	0.4238	17.5276	-18.6291	-46.0296	
402	48	1	-0.8476	21.2437	-19.5569	-45.9908	
403	48	2	0.4238	22.2437	-19.5569	-45.9908	
404	48	2	0.4238	20.9104	-18.6141	-45.9908	
405	49	1	-0.8476	24.6121	-19.5642	-46.0132	
406	49	2	0.4238	25.6121	-19.5642	-46.0132	
407	49	2	0.4238	24.2788	-18.6214	-46.0132	
408	50	1	-0.8476	-26.3081	-16.14	-45.9501	
409	50	2	0.4238	-25.3081	-16.14	-45.9501	
410	50	2	0.4238	-26.6414	-15.1972	-45.9501	
411	51	1	-0.8476	-22.9838	-16.1773	-45.9817	
412	51	2	0.4238	-21.9838	-16.1773	-45.9817	
413	51	2	0.4238	-23.3171	-15.2345	-45.9817	
414	52	1	-0.8476	-19.5908	-16.1385	-46.0315	
415	52	2	0.4238	-18.5908	-16.1385	-46.0315	
416	52	2	0.4238	-19.9241	-15.1957	-46.0315	
417	53	1	-0.8476	-16.1448	-16.1389	-45.9991	
418	53	2	0.4238	-15.1448	-16.1389	-45.9991	
419	53	2	0.4238	-16.4781	-15.1961	-45.9991	
420	54	1	-0.8476	-12.7699	-16.1766	-45.9622	
421	54	2	0.4238	-11.7699	-16.1766	-45.9622	
422	54	2	0.4238	-13.1032	-15.2338	-45.9622	
423	55	1	-0.8476	-9.3551	-16.1389	-46.0203	
424	55	2	0.4238	-8.3551	-16.1389	-46.0203	
425	55	2	0.4238	-9.6884	-15.1961	-46.0203	
426	56	1	-0.8476	-5.9105	-16.1555	-45.961	
427	56	2	0.4238	-4.9105	-16.1555	-45.961	
428	56	2	0.4238	-6.2438	-15.2127	-45.961	
429	57	1	-0.8476	-2.5587	-16.1374	-46.0463	
430	57	2	0.4238	-1.5587	-16.1374	-46.0463	
431	57	2	0.4238	-2.892	-15.1946	-46.0463	
432	58	1	-0.8476	0.89352	-16.1582	-45.9681	
433	58	2	0.4238	1.8935	-16.1582	-45.9681	
434	58	2	0.4238	0.56021	-15.2154	-45.9681	
435	59	1	-0.8476	4.2444	-16.1734	-46.0263	
436	59	2	0.4238	5.2444	-16.1734	-46.0263	
437	59	2	0.4238	3.9111	-15.2306	-46.0263	
438	60	1	-0.8476	7.6602	-16.1717	-46.0042	
439	60	2	0.4238	8.6602	-16.1717	-46.0042	
440	60	2	0.4238	7.3269	-15.2289	-46.0042	
441	61	1	-0.8476	11.0357	-16.192	-45.9673	
442	61	2	0.4238	12.0357	-16.192	-45.9673	
443	61	2	0.4238	10.7024	-15.2492	-45.9673	
444	62	1	-0.8476	14.4139	-16.1445	-46.0087	
445	62	2	0.4238	15.4139	-16.1445	-46.0087	
446	62	2	0.4238	14.0806	-15.2017	-46.0087	
447	63	1	-0.8476	17.8264	-16.1027	-46.0045	
448	63	2	0.4238	18.8264	-16.1027	-46.0045	
449	63	2	0.4238	17.493	-15.1599	-46.0045	
450	64	1	-0.8476	21.2431	-16.1665	-46.0427	
451	64	2	0.4238	22.2431	-16.1665	-46.0427	
452	64	2	0.4238	20.9098	-15.2237	-46.0427	
453	65	1	-0.8476	24.6137	-16.1299	-46.0259	
454	65	2	0.4238	25.6137	-16.1299	-46.0259	
455	65	2	0.4238	24.2803	-15.1871	-46.0259	
456	66	1	-0.8476	-26.3542	-12.7584	-46.0024	
457	66	2	0.4238	-25.3542	-12.7584	-46.0024	
458	66	2	0.4238	-26.6875	-11.8156	-46.0024	
459	67	1	-0.8476	-22.9467	-12.7424	-45.9543	
460	67	2	0.4238	-21.9467	-12.7424	-45.9543	
461	67	2	0.4238	-23.28	-11.7996	-45.9543	
462	68	1	-0.8476	-19.5754	-12.7412	-45.9813	
463	68	2	0.4238	-18.5754	-12.7412	-45.9813	
464	68	2	0.4238	-19.9087	-11.7984	-45.9813	
465	69	1	-0.8476	-16.1303	-12.7259	-45.9604	
466	69	2	0.4238	-15.1303	-12.7259	-45.9604	
467	69	2	0.4238	-16.4636	-11.7831	-45.9604	
468	70	1	-0.8476	-12.719	-12.795	-46.0177	
469	70	2	0.4238	-11.719	-12.795	-46.0177	
470	70	2	0.4238	-13.0523	-11.8522	-46.0177	
471	71	1	-0.8476	-9.358	-12.7038	-45.9536	
472	71	2	0.4238	-8.358	-12.7038	-45.9536	
473	71	2	0.4238	-9.6913	-11.761	-45.9536	
474	72	1	-0.8476	-5.9103	-12.7045	-46.0233	
475	72	2	0.4238	-4.9103	-12.7045	-46.0233	
476	72	2	0.4238	-6.2437	-11.7617	-46.0233	
477	73	1	-0.8476	-2.5944	-12.7411	-46.042	
478	73	2	0.4238	-1.5944	-12.7411	-46.042	
479	73	2	0.4238	-2.9277	-11.7983	-46.042	
480	74	1	-0.8476	0.81683	-12.7967	-46.0308	
481	74	2	0.4238	1.8168	-12.7967	-46.0308	
482	74	2	0.4238	0.48352	-11.8539	-46.0308	
483	75	1	-0.8476	4.2209	-12.7508	-46.0329	
484	75	2	0.4238	5.2209	-12.7508	-46.0329	
485	75	2	0.4238	3.8876	-11.808	-46.0329	
486	76	1	-0.8476	7.6507	-12.7884	-46.0202	
487	76	2	0.4238	8.6507	-12.7884	-46.0202	
488	76	2	0.4238	7.3174	-11.8456	-46.0202	
489	77	1	-0.8476	11.01	-12.7588	-46.0337	
490	77	2	0.4238	12.01	-12.7588	-46.0337	
491	77	2	0.4238	10.6767	-11.816	-46.0337	
492	78	1	-0.8476	14.4532	-12.7299	-46.0078	
493	78	2	0.4238	15.4532	-12.7299	-46.0078	
494	78	2	0.4238	14.1199	-11.7871	-46.0078	
495	79	1	-0.8476	17.8336	-12.7392	-45.9579	
496	79	2	0.4238	18.8336	-12.7392	-45.9579	
497	79	2	0.4238	17.5003	-11.7964	-45.9579	
498	80	1	-0.8476	21.2148	-12.7612	-46.0036	
499	80	2	0.4238	22.2148	-12.7612	-46.0036	
500	80	2	0.4238	20.8814	-11.8184	-46.0036	
501	81	1	-0.8476	24.6398	-12.7804	-46.0396	
502	81	2	0.4238	25.6398	-12.7804	-46.0396	
503	81	2	0.4238	24.3064	-11.8376	-46.0396	
504	82	1	-0.8476	-26.3859	-9.3955	-45.9632	
505	82	2	0.4238	-25.3859	-9.3955	-45.9632	
506	82	2	0.4238	-26.7192	-8.4527	-45.9632	
507	83	1	-0.8476	-22.9487	-9.3748	-46.0142	
508	83	2	0.4238	-21.9487	-9.3748	-46.0142	
509	83	2	0.4238	-23.282	-8.432	-46.0142	
510	84	1	-0.8476	-19.5191	-9.3641	-46.0247	
511	84	2	0.4238	-18.5191	-9.3641	-46.0247	
512	84	2	0.4238	-19.8524	-8.4213	-46.0247	
513	85	1	-0.8476	-16.1372	-9.3211	-45.9876	
514	85	2	0.4238	-15.1372	-9.3211	-45.9876	
515	85	2	0.4238	-16.4705	-8.3783	-45.9876	
516	86	1	-0.8476	-12.7643	-9.3486	-46.0316	
517	86	2	0.4238	-11.7643	-9.3486	-46.0316	
518	86	2	0.4238	-13.0977	-8.4058	-46.0316	
519	87	1	-0.8476	-9.3768	-9.3373	-46.035	
520	87	2	0.4238	-8.3768	-9.3373	-46.035	
521	87	2	0.4238	-9.7101	-8.3945	-46.035	
522	88	1	-0.8476	-5.9196	-9.3554	-45.9734	
523	88	2	0.4238	-4.9196	-9.3554	-45.9734	
524	88	2	0.4238	-6.2529	-8.4126	-45.9734	
525	89	1	-0.8476	-2.5507	-9.3996	-46.0239	
526	89	2	0.4238	-1.5507	-9.3996	-46.0239	
527	89	2	0.4238	-2.884	-8.4568	-46.0239	
528	90	1	-0.8476	0.8401	-9.323	-46.011	
529	90	2	0.4238	1.8401	-9.323	-46.011	
530	90	2	0.4238	0.50679	-8.3802	-46.011	
531	91	1	-0.8476	4.2519	-9.3393	-46.0039	
532	91	2	0.4238	5.2519	-9.3393	-46.0039	
533	91	2	0.4238	3.9186	-8.3965	-46.0039	
534	92	1	-0.8476	7.6389	-9.3178	-45.9895	
535	92	2	0.4238	8.6389	-9.3178	-45.9895	
536	92	2	0.4238	7.3056	-8.375	-45.9895	
537	93	1	-0.8476	11.021	-9.3634	-45.97	
538	93	2	0.4238	12.021	-9.3634	-45.97	
539	93	2	0.4238	10.6877	-8.4206	-45.97	
540	94	1	-0.8476	14.4984	-9.3113	-46.0195	
541	94	2	0.4238	15.4984	-9.3113	-46.0195	
542	94	2	0.4238	14.1651	-8.3685	-46.0195	
543	95	1	-0.8476	17.8536	-9.3616	-45.96	
544	95	2	0.4238	18.8536	-9.3616	-45.96	
545	95	2	0.4238	17.5202	-8.4188	-45.96	
546	96	1	-0.8476	21.2297	-9.3562	-46.0132	
547	96	2	0.4238	22.2297	-9.3562	-46.0132	
548	96	2	0.4238	20.8964	-8.4134	-46.0132	
549	97	1	-0.8476	24.6875	-9.3329	-45.9532	
550	97	2	0.4238	25.6875	-9.3329	-45.9532	
551	97	2	0.4238	24.3542	-8.3901	-45.9532	
552	98	1	-0.8476	-26.3332	-5.986	-45.9728	
553	98	2	0.4238	-25.3332	-5.986	-45.9728	
554	98	2	0.4238	-26.6665	-5.0432	-45.9728	
555	99	1	-0.8476	-22.9875	-5.947	-46.0395	
556	99	2	0.4238	-21.9875	-5.947	-46.0395	
557	99	2	0.4238	-23.3208	-5.0042	-46.0395	
558	100	1	-0.8476	-19.5111	-5.9676	-45.9785	
559	100	2	0.4238	-18.5111	-5.9676	-45.9785	
560	100	2	0.4238	-19.8444	-5.0248	-45.9785	
561	101	1	-0.8476	-16.157	-5.9489	-46.0165	
562	101	2	0.4238	-15.157	-5.9489	-46.0165	
563	101	2	0.4238	-16.4903	-5.0061	-46.0165	
564	102	1	-0.8476	-12.7519	-5.9585	-45.9977	
565	102	2	0.4238	-11.7519	-5.9585	-45.9977	
566	102	2	0.4238	-13.0852	-5.0157	-45.9977	
567	103	1	-0.8476	-9.317	-5.9794	-46.0097	
568	103	2	0.4238	-8.317	-5.9794	-46.0097	
569	103	2	0.4238	-9.6504	-5.0366	-46.0097	
570	104	1	-0.8476	-5.9465	-5.9609	-45.996	
571	104	2	0.4238	-4.9465	-5.9609	-45.996	
572	104	2	0.4238	-6.2798	-5.0181	-45.996	
573	105	1	-0.8476	-2.5818	-5.9187	-46.014	
574	105	2	0.4238	-1.5818	-5.9187	-46.014	
575	105	2	0.4238	-2.9151	-4.9759	-46.014	
576	106	1	-0.8476	0.87552	-5.9017	-45.9964	
577	106	2	0.4238	1.8755	-5.9017	-45.9964	
578	106	2	0.4238	0.54221	-4.9589	-45.9964	
579	107	1	-0.8476	4.2227	-5.9081	-46.0219	
580	107	2	0.4238	5.2227	-5.9081	-46.0219	
581	107	2	0.4238	3.8893	-4.9653	-46.0219	
582	108	1	-0.8476	7.636	-5.9684	-46.0159	
583	108	2	0.4238	8.636	-5.9684	-46.0159	
584	108	2	0.4238	7.3027	-5.0256	-46.0159	
585	109	1	-0.8476	11.077	-5.9764	-46.0446	
586	109	2	0.4238	12.077	-5.9764	-46.0446	
587	109	2	0.4238	10.7437	-5.0336	-46.0446	
588	110	1	-0.8476	14.482	-5.9086	-46.0154	
589	110	2	0.4238	15.482	-5.9086	-46.0154	
590	110	2	0.4238	14.1487	-4.9658	-46.0154	
591	111	1	-0.8476	17.866	-5.9736	-46.0208	
592	111	2	0.4238	18.866	-5.9736	-46.0208	
593	111	2	0.4238	17.5327	-5.0308	-46.0208	
594	112	1	-0.8476	21.2849	-5.9087	-45.9988	
595	112	2	0.4238	22.2849	-5.9087	-45.9988	
596	112	2	0.4238	20.9516	-4.9659	-45.9988	
597	113	1	-0.8476	24.6156	-5.9322	-45.9638	
598	113	2	0.4238	25.6156	-5.9322	-45.9638	
599	113	2	0.4238	24.2822	-4.9894	-45.9638	
600	114	1	-0.8476	-26.379	-2.5353	-45.9704	
601	114	2	0.4238	-25.379	-2.5353	-45.9704	
602	114	2	0.4238	-26.7123	-1.5925	-45.9704	
603	115	1	-0.8476	-22.9931	-2.5152	-45.9949	
604	115	2	0.4238	-21.9931	-2.5152	-45.9949	
605	115	2	0.4238	-23.3264	-1.5724	-45.9949	
606	116	1	-0.8476	-19.5602	-2.5686	-45.9515	
607	116	2	0.4238	-18.5602	-2.5686	-45.9515	
608	116	2	0.4238	-19.8935	-1.6258	-45.9515	
609	117	1	-0.8476	-16.1942	-2.5353	-46.0329	
610	117	2	0.4238	-15.1942	-2.5353	-46.0329	
611	117	2	0.4238	-16.5276	-1.5925	-46.0329	
612	118	1	-0.8476	-12.713	-2.5562	-46.0292	
613	118	2	0.4238	-11.713	-2.5562	-46.0292	
614	118	2	0.4238	-13.0463	-1.6134	-46.0292	
615	119	1	-0.8476	-9.343	-2.5092	-45.9611	
616	119	2	0.4238	-8.343	-2.5092	-45.9611	
617	119	2	0.4238	-9.6763	-1.5664	-45.9611	
618	120	1	-0.8476	-5.9588	-2.5392	-46.0188	
619	120	2	0.4238	-4.9588	-2.5392	-46.0188	
620	120	2	0.4238	-6.2921	-1.5964	-46.0188	
621	121	1	-0.8476	-2.5519	-2.5715	-46.0104	
622	121	2	0.4238	-1.5519	-2.5715	-46.0104	
623	121	2	0.4238	-2.8852	-1.6287	-46.0104	
624	122	1	-0.8476	0.82084	-2.5834	-46.0192	
625	122	2	0.4238	1.8208	-2.5834	-46.0192	
626	122	2	0.4238	0.48753	-1.6406	-46.0192	
627	123	1	-0.8476	4.2477	-2.5513	-46.0293	
628	123	2	0.4238	5.2477	-2.5513	-46.0293	
629	123	2	0.4238	3.9144	-1.6085	-46.0293	
630	124	1	-0.8476	7.6222	-2.5854	-45.9837	
631	124	2	0.4238	8.6222	-2.5854	-45.9837	
632	124	2	0.4238	7.2889	-1.6426	-45.9837	
633	125	1	-0.8476	11.0401	-2.5531	-45.9505	
634	125	2	0.4238	12.0401	-2.5531	-45.9505	
635	125	2	0.4238	10.7068	-1.6103	-45.9505	
636	126	1	-0.8476	14.4137	-2.557	-46.0007	
637	126	2	0.4238	15.4137	-2.557	-46.0007	
638	126	2	0.4238	14.0804	-1.6142	-46.0007	
639	127	1	-0.8476	17.8711	-2.5232	-45.965	
640	127	2	0.4238	18.8711	-2.5232	-45.965	
641	127	2	0.4238	17.5378	-1.5804	-45.965	
642	128	1	-0.8476	21.2212	-2.5286	-45.9683	
643	128	2	0.4238	22.2212	-2.5286	-45.9683	
644	128	2	0.4238	20.8879	-1.5858	-45.9683	
645	129	1	-0.8476	24.6161	-2.5231	-46.0398	
646	129	2	0.4238	25.6161	-2.5231	-46.0398	
647	129	2	0.4238	24.2828	-1.5803	-46.0398	
648	130	1	-0.8476	-26.382	0.81889	-46.0201	
649	130	2	0.4238	-25.382	0.81889	-46.0201	
650	130	2	0.4238	-26.7153	1.7617	-46.0201	
651	131	1	-0.8476	-22.9076	0.82058	-46.0095	
652	131	2	0.4238	-21.9076	0.82058	-46.0095	
653	131	2	0.4238	-23.2409	1.7634	-46.0095	
654	132	1	-0.8476	-19.5686	0.84515	-46.047	
655	132	2	0.4238	-18.5686	0.84515	-46.047	
656	132	2	0.4238	-19.9019	1.788	-46.047	
657	133	1	-0.8476	-16.1198	0.89316	-46.0186	
658	133	2	0.4238	-15.1198	0.89316	-46.0186	
659	133	2	0.4238	-16.4532	1.836	-46.0186	
660	134	1	-0.8476	-12.7872	0.85338	-46.0408	
661	134	2	0.4238	-11.7872	0.85338	-46.0408	
662	134	2	0.4238	-13.1205	1.7962	-46.0408	
663	135	1	-0.8476	-9.3701	0.8377	-46.0419	
664	135	2	0.4238	-8.3701	0.8377	-46.0419	
665	135	2	0.4238	-9.7034	1.7805	-46.0419	
666	136	1	-0.8476	-5.9957	0.87739	-46.0029	
667	136	2	0.4238	-4.9957	0.87739	-46.0029	
668	136	2	0.4238	-6.329	1.8202	-46.0029	
669	137	1	-0.8476	-2.5741	0.81657	-45.9961	
670	137	2	0.4238	-1.5741	0.81657	-45.9961	
671	137	2	0.4238	-2.9074	1.7594	-45.9961	
672	138	1	-0.8476	0.83273	0.86996	-45.9756	
673	138	2	0.4238	1.8327	0.86996	-45.9756	
674	138	2	0.4238	0.49942	1.8128	-45.9756	
675	139	1	-0.8476	4.2611	0.86961	-46.0117	
676	139	2	0.4238	5.2611	0.86961	-46.0117	
677	139	2	0.4238	3.9278	1.8124	-46.0117	
678	140	1	-0.8476	7.6428	0.85426	-45.9979	
679	140	2	0.4238	8.6428	0.85426	-45.9979	
680	140	2	0.4238	7.3095	1.7971	-45.9979	
681	141	1	-0.8476	11.0107	0.81839	-45.9773	
682	141	2	0.4238	12.0107	0.81839	-45.9773	
683	141	2	0.4238	10.6774	1.7612	-45.9773	
684	142	1	-0.8476	14.4263	0.81231	-46.0178	
685	142	2	0.4238	15.4263	0.81231	-46.0178	
686	142	2	0.4238	14.093	1.7551	-46.0178	
687	143	1	-0.8476	17.8091	0.82134	-45.9932	
688	143	2	0.4238	18.8091	0.82134	-45.9932	
689	143	2	0.4238	17.4758	1.7641	-45.9932	
690	144	1	-0.8476	21.2484	0.81698	-45.9681	
691	144	2	0.4238	22.2484	0.81698	-45.9681	
692	144	2	0.4238	20.9151	1.7598	-45.9681	
693	145	1	-0.8476	24.6955	0.89314	-45.995	
694	145	2	0.4238	25.6955	0.89314	-45.995	
695	145	2	0.4238	24.3622	1.8359	-45.995	
696	146	1	-0.8476	-26.3184	4.2064	-46.0456	
697	146	2	0.4238	-25.3184	4.2064	-46.0456	
698	146	2	0.4238	-26.6517	5.1492	-46.0456	
699	147	1	-0.8476	-22.966	4.2164	-46.0047	
700	147	2	0.4238	-21.966	4.2164	-46.0047	
701	147	2	0.4238	-23.2993	5.1592	-46.0047	
702	148	1	-0.8476	-19.5565	4.2802	-45.9877	
703	148	2	0.4238	-18.5565	4.2802	-45.9877	
704	148	2	0.4238	-19.8898	5.223	-45.9877	
705	149	1	-0.8476	-16.1718	4.2974	-46.0075	
706	149	2	0.4238	-15.1718	4.2974	-46.0075	
707	149	2	0.4238	-16.5051	5.2402	-46.0075	
708	150	1	-0.8476	-12.7526	4.2771	-45.9915	
709	150	2	0.4238	-11.7526	4.2771	-45.9915	
710	150	2	0.4238	-13.0859	5.2199	-45.9915	
711	151	1	-0.8476	-9.3413	4.2139	-45.9816	
712	151	2	0.4238	-8.3413	4.2139	-45.9816	
713	151	2	0.4238	-9.6746	5.1567	-45.9816	
714	152	1	-0.8476	-5.9181	4.2256	-45.9978	
715	152	2	0.4238	-4.9181	4.2256	-45.9978	
716	152	2	0.4238	-6.2514	5.1684	-45.9978	
717	153	1	-0.8476	-2.5529	4.2226	-45.9941	
718	153	2	0.4238	-1.5529	4.2226	-45.9941	
719	153	2	0.4238	-2.8862	5.1654	-45.9941	
720	154	1	-0.8476	0.86216	4.2441	-46.0243	
721	154	2	0.4238	1.8622	4.2441	-46.0243	
722	154	2	0.4238	0.52885	5.1869	-46.0243	
723	155	1	-0.8476	4.276	4.2164	-45.9576	
724	155	2	0.4238	5.276	4.2164	-45.9576	
725	155	2	0.4238	3.9427	5.1592	-45.9576	
726	156	1	-0.8476	7.6165	4.2041	-46.0232	
727	156	2	0.4238	8.6165	4.2041	-46.0232	
728	156	2	0.4238	7.2832	5.1469	-46.0232	
729	157	1	-0.8476	11.0812	4.261	-46.0244	
730	157	2	0.4238	12.0812	4.261	-46.0244	
731	157	2	0.4238	10.7478	5.2038	-46.0244	
732	158	1	-0.8476	14.4744	4.2864	-45.9941	
733	158	2	0.4238	15.4744	4.2864	-45.9941	
734	158	2	0.4238	14.1411	5.2292	-45.9941	
735	159	1	-0.8476	17.8621	4.2073	-46.0299	
736	159	2	0.4238	18.8621	4.2073	-46.0299	
737	159	2	0.4238	17.5288	5.1501	-46.0299	
738	160	1	-0.8476	21.2939	4.2826	-46.0064	
739	160	2	0.4238	22.2939	4.2826	-46.0064	
740	160	2	0.4238	20.9606	5.2254	-46.0064	
741	161	1	-0.8476	24.6368	4.2854	-46.0103	
742	161	2	0.4238	25.6368	4.2854	-46.0103	
743	161	2	0.4238	24.3035	5.2282	-46.0103	
744	162	1	-0.8476	-26.3449	7.6898	-45.9885	
745	162	2	0.4238	-25.3449	7.6898	-45.9885	
746	162	2	0.4238	-26.6782	8.6326	-45.9885	
747	163	1	-0.8476	-22.9161	7.6145	-46.0142	
748	163	2	0.4238	-21.9161	7.6145	-46.0142	
749	163	2	0.4238	-23.2494	8.5573	-46.0142	
750	164	1	-0.8476	-19.5163	7.6091	-45.9777	
751	164	2	0.4238	-18.5163	7.6091	-45.9777	
752	164	2	0.4238	-19.8496	8.5519	-45.9777	
753	165	1	-0.8476	-16.1728	7.6847	-46.0093	
754	165	2	0.4238	-15.1728	7.6847	-46.0093	
755	165	2	0.4238	-16.5061	8.6275	-46.0093	
756	166	1	-0.8476	-12.7062	7.6243	-46.0387	
757	166	2	0.4238	-11.7062	7.6243	-46.0387	
758	166	2	0.4238	-13.0395	8.5671	-46.0387	
759	167	1	-0.8476	-9.3318	7.6725	-45.9653	
760	167	2	0.4238	-8.3318	7.6725	-45.9653	
761	167	2	0.4238	-9.6651	8.6153	-45.9653	
762	168	1	-0.8476	-5.9082	7.6313	-46.0499	
763	168	2	0.4238	-4.9082	7.6313	-46.0499	
764	168	2	0.4238	-6.2415	8.5741	-46.0499	
765	169	1	-0.8476	-2.5805	7.6918	-46.0241	
766	169	2	0.4238	-1.5805	7.6918	-46.0241	
767	169	2	0.4238	-2.9138	8.6346	-46.0241	