# System

13763 atoms
9330 bonds
5113 angles
1193 dihedrals
147 impropers

15 atom types
8 bond types
14 angle types
15 dihedral types
1 improper types
extra bond per atom 2
extra angle per atom 1
extra special per atom 2
-27.2         27.2 xlo xhi
-27.2         27.2 ylo yhi
-50  50 zlo zhi

Atoms

1	1	3	-0.115	0	-9.1962	-15.802	
2	1	3	-0.115	0	-9.9036	-14.5767	
3	1	3	0	0	-9.1962	-13.3515	
4	1	3	-0.115	0	-9.9036	-12.1262	
5	1	3	0	0	-9.1962	-10.901	
6	1	3	-0.115	0	-9.9036	-9.6757	
7	1	3	0	0	-9.1962	-8.4505	
8	1	3	-0.115	0	-9.9036	-7.2252	
9	1	3	0	0	-9.1962	-6	
10	1	13	0.15	0	-9.9036	-4.7747	
11	1	3	0	0	-9.1962	-3.5495	
12	1	3	-0.115	0	-9.9036	-2.3242	
13	1	3	0	0	-9.1962	-1.099	
14	1	13	0.15	0	-9.9036	0.12628	
15	1	3	0	0	-9.1962	1.3515	
16	1	3	-0.115	0	-9.9036	2.5768	
17	1	3	-0.115	0	-9.1962	3.802	
18	1	13	0.15	0	-7.7814	-15.802	
19	1	3	0	0	-7.074	-14.5767	
20	1	3	0	0	-7.7814	-13.3515	
21	1	3	0	0	-7.074	-12.1262	
22	1	3	0	0	-7.7814	-10.901	
23	1	3	0	0	-7.074	-9.6757	
24	1	3	0	0	-7.7814	-8.4505	
25	1	3	0	0	-7.074	-7.2252	
26	1	5	0.265	0	-7.7814	-6	
27	1	5	0.265	0	-7.074	-4.7747	
28	1	3	0	0	-7.7814	-3.5495	
29	1	3	0	0	-7.074	-2.3242	
30	1	3	0	0	-7.7814	-1.099	
31	1	3	0	0	-7.074	0.12628	
32	1	3	0	0	-7.7814	1.3515	
33	1	3	0	0	-7.074	2.5768	
34	1	3	-0.115	0	-7.7814	3.802	
35	1	13	0.15	0	-4.9518	-15.802	
36	1	5	0.265	0	-5.6592	-14.5767	
37	1	5	0.265	0	-4.9518	-13.3515	
38	1	5	0.265	0	-5.6592	-12.1262	
39	1	5	0.265	0	-4.9518	-10.901	
40	1	3	0	0	-5.6592	-9.6757	
41	1	5	0.265	0	-4.9518	-8.4505	
42	1	3	0	0	-5.6592	-7.2252	
43	1	5	0.265	0	-4.9518	-6	
44	1	5	0.265	0	-5.6592	-4.7747	
45	1	3	0	0	-4.9518	-3.5495	
46	1	3	0	0	-5.6592	-2.3242	
47	1	3	0	0	-4.9518	-1.099	
48	1	3	0	0	-5.6592	0.12628	
49	1	3	0	0	-4.9518	1.3515	
50	1	3	0	0	-5.6592	2.5768	
51	1	13	0.15	0	-4.9518	3.802	
52	1	3	-0.115	0	-3.537	-15.802	
53	1	3	0	0	-2.8296	-14.5767	
54	1	3	0	0	-3.537	-13.3515	
55	1	3	0	0	-2.8296	-12.1262	
56	1	5	0.265	0	-3.537	-10.901	
57	1	5	0.265	0	-2.8296	-9.6757	
58	1	5	0.265	0	-3.537	-8.4505	
59	1	5	0.265	0	-2.8296	-7.2252	
60	1	3	0	0	-3.537	-6	
61	1	3	0	0	-2.8296	-4.7747	
62	1	3	0	0	-3.537	-3.5495	
63	1	3	0	0	-2.8296	-2.3242	
64	1	3	0	0	-3.537	-1.099	
65	1	3	0	0	-2.8296	0.12628	
66	1	3	0	0	-3.537	1.3515	
67	1	3	0	0	-2.8296	2.5768	
68	1	3	-0.115	0	-3.537	3.802	
69	1	3	-0.115	0	-0.7074	-15.802	
70	1	3	0	0	-1.4148	-14.5767	
71	1	3	0	0	-0.7074	-13.3515	
72	1	5	0.265	0	-1.4148	-12.1262	
73	1	5	0.265	0	-0.7074	-10.901	
74	1	3	0	0	-1.4148	-9.6757	
75	1	5	0.265	0	-0.7074	-8.4505	
76	1	3	0	0	-1.4148	-7.2252	
77	1	3	0	0	-0.7074	-6	
78	1	3	0	0	-1.4148	-4.7747	
79	1	3	0	0	-0.7074	-3.5495	
80	1	3	0	0	-1.4148	-2.3242	
81	1	3	0	0	-0.7074	-1.099	
82	1	3	0	0	-1.4148	0.12628	
83	1	3	0	0	-0.7074	1.3515	
84	1	3	0	0	-1.4148	2.5768	
85	1	13	0.15	0	-0.7074	3.802	
86	1	3	-0.115	0	0.7074	-15.802	
87	1	3	0	0	1.4148	-14.5767	
88	1	5	0.265	0	0.7074	-13.3515	
89	1	5	0.265	0	1.4148	-12.1262	
90	1	3	0	0	0.7074	-10.901	
91	1	3	0	0	1.4148	-9.6757	
92	1	5	0.265	0	0.7074	-8.4505	
93	1	3	0	0	1.4148	-7.2252	
94	1	3	0	0	0.7074	-6	
95	1	3	0	0	1.4148	-4.7747	
96	1	3	0	0	0.7074	-3.5495	
97	1	3	0	0	1.4148	-2.3242	
98	1	3	0	0	0.7074	-1.099	
99	1	3	0	0	1.4148	0.12628	
100	1	3	0	0	0.7074	1.3515	
101	1	3	0	0	1.4148	2.5768	
102	1	3	-0.115	0	0.7074	3.802	
103	1	13	0.15	0	3.537	-15.802	
104	1	3	0	0	2.8296	-14.5767	
105	1	3	0	0	3.537	-13.3515	
106	1	3	0	0	2.8296	-12.1262	
107	1	5	0.265	0	3.537	-10.901	
108	1	5	0.265	0	2.8296	-9.6757	
109	1	3	0	0	3.537	-8.4505	
110	1	3	0	0	2.8296	-7.2252	
111	1	3	0	0	3.537	-6	
112	1	3	0	0	2.8296	-4.7747	
113	1	3	0	0	3.537	-3.5495	
114	1	3	0	0	2.8296	-2.3242	
115	1	3	0	0	3.537	-1.099	
116	1	3	0	0	2.8296	0.12628	
117	1	3	0	0	3.537	1.3515	
118	1	3	0	0	2.8296	2.5768	
119	1	3	-0.115	0	3.537	3.802	
120	1	13	0.15	0	4.9518	-15.802	
121	1	3	0	0	5.6592	-14.5767	
122	1	3	0	0	4.9518	-13.3515	
123	1	3	0	0	5.6592	-12.1262	
124	1	3	0	0	4.9518	-10.901	
125	1	5	0.265	0	5.6592	-9.6757	
126	1	5	0.265	0	4.9518	-8.4505	
127	1	3	0	0	5.6592	-7.2252	
128	1	3	0	0	4.9518	-6	
129	1	3	0	0	5.6592	-4.7747	
130	1	3	0	0	4.9518	-3.5495	
131	1	3	0	0	5.6592	-2.3242	
132	1	3	0	0	4.9518	-1.099	
133	1	3	0	0	5.6592	0.12628	
134	1	3	0	0	4.9518	1.3515	
135	1	3	0	0	5.6592	2.5768	
136	1	3	-0.115	0	4.9518	3.802	
137	1	3	-0.115	0	7.7814	-15.802	
138	1	3	0	0	7.074	-14.5767	
139	1	3	0	0	7.7814	-13.3515	
140	1	3	0	0	7.074	-12.1262	
141	1	3	0	0	7.7814	-10.901	
142	1	3	0	0	7.074	-9.6757	
143	1	3	0	0	7.7814	-8.4505	
144	1	3	0	0	7.074	-7.2252	
145	1	3	0	0	7.7814	-6	
146	1	3	0	0	7.074	-4.7747	
147	1	3	0	0	7.7814	-3.5495	
148	1	3	0	0	7.074	-2.3242	
149	1	3	0	0	7.7814	-1.099	
150	1	3	0	0	7.074	0.12628	
151	1	3	0	0	7.7814	1.3515	
152	1	3	0	0	7.074	2.5768	
153	1	3	-0.115	0	7.7814	3.802	
154	1	3	-0.115	0	9.1962	-15.802	
155	1	3	-0.115	0	9.9036	-14.5767	
156	1	3	0	0	9.1962	-13.3515	
157	1	3	-0.115	0	9.9036	-12.1262	
158	1	3	0	0	9.1962	-10.901	
159	1	3	-0.115	0	9.9036	-9.6757	
160	1	3	0	0	9.1962	-8.4505	
161	1	3	-0.115	0	9.9036	-7.2252	
162	1	3	0	0	9.1962	-6	
163	1	3	-0.115	0	9.9036	-4.7747	
164	1	3	0	0	9.1962	-3.5495	
165	1	13	0.15	0	9.9036	-2.3242	
166	1	3	0	0	9.1962	-1.099	
167	1	13	0.15	0	9.9036	0.12628	
168	1	3	0	0	9.1962	1.3515	
169	1	3	-0.115	0	9.9036	2.5768	
170	1	13	0.15	0	9.1962	3.802	
171	1	4	0.115	0	-10.9806	-14.5767	
172	1	4	0.115	0	-10.9806	-12.1262	
173	1	4	0.115	0	-10.9806	-9.6757	
174	1	4	0.115	0	-10.9806	-7.2252	
175	1	9	-0.585	0	-11.3036	-4.7747	
176	1	4	0.115	0	-10.9806	-2.3242	
177	1	9	-0.585	0	-11.3036	0.12628	
178	1	4	0.115	0	-10.9806	2.5768	
179	1	4	0.115	0	10.9806	-14.5767	
180	1	4	0.115	0	10.9806	-12.1262	
181	1	4	0.115	0	10.9806	-9.6757	
182	1	4	0.115	0	10.9806	-7.2252	
183	1	4	0.115	0	10.9806	-4.7747	
184	1	9	-0.585	0	11.3036	-2.3242	
185	1	9	-0.585	0	11.3036	0.12628	
186	1	4	0.115	0	10.9806	2.5768	
187	1	4	0.115	0	-9.7347	-16.7347	
188	1	9	-0.585	0	-7.0814	-17.0144	
189	1	4	0.115	0	-9.7347	4.7348	
190	1	4	0.115	0	-7.2429	4.7348	
191	1	9	-0.585	0	-5.6518	-17.0144	
192	1	4	0.115	0	-2.9985	-16.7347	
193	1	9	-0.585	0	-5.6518	5.0145	
194	1	4	0.115	0	-2.9985	4.7348	
195	1	4	0.115	0	-1.2459	-16.7347	
196	1	4	0.115	0	1.2459	-16.7347	
197	1	9	-0.585	0	-1.4074	5.0145	
198	1	4	0.115	0	1.2459	4.7348	
199	1	9	-0.585	0	2.837	-17.0144	
200	1	9	-0.585	0	5.6518	-17.0144	
201	1	4	0.115	0	2.9985	4.7348	
202	1	4	0.115	0	5.4903	4.7348	
203	1	4	0.115	0	7.2429	-16.7347	
204	1	4	0.115	0	9.7347	-16.7347	
205	1	4	0.115	0	7.2429	4.7348	
206	1	9	-0.585	0	9.8962	5.0145	
207	1	7	0.435	-0.7	-12.0036	-4.7747	
208	1	7	0.435	-0.7	-12.0036	0.12628	
209	1	7	0.435	-0.7	12.0036	-2.3242	
210	1	7	0.435	0.7	12.0036	0.12628	
211	1	7	0.435	-0.7	-6.7314	-17.6207	
212	1	7	0.435	-0.7	-6.0018	-17.6207	
213	1	7	0.435	-0.7	-6.0018	5.6207	
214	1	7	0.435	-0.7	-1.7574	5.6207	
215	1	7	0.435	0.7	2.487	-17.6207	
216	1	7	0.435	0.7	6.0018	-17.6207	
217	1	7	0.435	0.7	10.2462	5.6207	
218	1	6	-0.683	1.4	-4.9518	-13.3515	
219	1	7	0.418	2.4	-4.9518	-13.3515	
220	1	6	-0.683	-1.4	-5.6592	-14.5767	
221	1	7	0.418	-2.4	-5.6592	-14.5767	
222	1	6	-0.683	1.4	-5.6592	-12.1262	
223	1	7	0.418	2.4	-5.6592	-12.1262	
224	1	6	-0.683	-1.4	-1.4148	-12.1262	
225	1	7	0.418	-2.4	-1.4148	-12.1262	
226	1	6	-0.683	-1.4	-4.9518	-10.901	
227	1	7	0.418	-2.4	-4.9518	-10.901	
228	1	6	-0.683	1.4	-2.8296	-9.6757	
229	1	7	0.418	2.4	-2.8296	-9.6757	
230	1	6	-0.683	1.4	0.7074	-13.3515	
231	1	7	0.418	2.4	0.7074	-13.3515	
232	1	6	-0.683	-1.4	-0.7074	-10.901	
233	1	7	0.418	-2.4	-0.7074	-10.901	
234	1	6	-0.683	1.4	0.7074	-8.4505	
235	1	7	0.418	2.4	0.7074	-8.4505	
236	1	6	-0.683	-1.4	1.4148	-12.1262	
237	1	7	0.418	-2.4	1.4148	-12.1262	
238	1	6	-0.683	1.4	-0.7074	-8.4505	
239	1	7	0.418	2.4	-0.7074	-8.4505	
240	1	6	-0.683	-1.4	-3.537	-8.4505	
241	1	7	0.418	-2.4	-3.537	-8.4505	
242	1	6	-0.683	1.4	-4.9518	-8.4505	
243	1	7	0.418	2.4	-4.9518	-8.4505	
244	1	6	-0.683	-1.4	-4.9518	-6	
245	1	7	0.418	-2.4	-4.9518	-6	
246	1	6	-0.683	-1.4	-3.537	-10.901	
247	1	7	0.418	-2.4	-3.537	-10.901	
248	1	6	-0.683	-1.4	2.8296	-9.6757	
249	1	7	0.418	-2.4	2.8296	-9.6757	
250	1	6	-0.683	1.4	-7.7814	-6	
251	1	7	0.418	2.4	-7.7814	-6	
252	1	6	-0.683	1.4	3.537	-10.901	
253	1	7	0.418	2.4	3.537	-10.901	
254	1	6	-0.683	1.4	4.9518	-8.4505	
255	1	7	0.418	2.4	4.9518	-8.4505	
256	1	6	-0.683	-1.4	-7.074	-4.7747	
257	1	7	0.418	-2.4	-7.074	-4.7747	
258	1	6	-0.683	1.4	5.6592	-9.6757	
259	1	7	0.418	2.4	5.6592	-9.6757	
260	1	6	-0.683	1.4	-5.6592	-4.7747	
261	1	7	0.418	2.4	-5.6592	-4.7747	
262	1	6	-0.683	-1.4	-2.8296	-7.2252	
263	1	7	0.418	-2.4	-2.8296	-7.2252	
264	2	1	-0.8476	-26.3436	-26.3906	-46.0042	
265	2	2	0.4238	-25.3436	-26.3906	-46.0042	
266	2	2	0.4238	-26.6769	-25.4478	-46.0042	
267	3	1	-0.8476	-22.9125	-26.3194	-46.0213	
268	3	2	0.4238	-21.9125	-26.3194	-46.0213	
269	3	2	0.4238	-23.2458	-25.3766	-46.0213	
270	4	1	-0.8476	-19.5988	-26.3933	-46.0086	
271	4	2	0.4238	-18.5988	-26.3933	-46.0086	
272	4	2	0.4238	-19.9321	-25.4505	-46.0086	
273	5	1	-0.8476	-16.1531	-26.3402	-46.0162	
274	5	2	0.4238	-15.1531	-26.3402	-46.0162	
275	5	2	0.4238	-16.4864	-25.3974	-46.0162	
276	6	1	-0.8476	-12.7267	-26.3446	-45.9972	
277	6	2	0.4238	-11.7267	-26.3446	-45.9972	
278	6	2	0.4238	-13.06	-25.4018	-45.9972	
279	7	1	-0.8476	-9.372	-26.3291	-45.9978	
280	7	2	0.4238	-8.372	-26.3291	-45.9978	
281	7	2	0.4238	-9.7053	-25.3863	-45.9978	
282	8	1	-0.8476	-5.9734	-26.3285	-46.0448	
283	8	2	0.4238	-4.9734	-26.3285	-46.0448	
284	8	2	0.4238	-6.3068	-25.3857	-46.0448	
285	9	1	-0.8476	-2.5148	-26.3154	-45.9886	
286	9	2	0.4238	-1.5148	-26.3154	-45.9886	
287	9	2	0.4238	-2.8481	-25.3726	-45.9886	
288	10	1	-0.8476	0.89337	-26.3123	-46.011	
289	10	2	0.4238	1.8934	-26.3123	-46.011	
290	10	2	0.4238	0.56006	-25.3695	-46.011	
291	11	1	-0.8476	4.2432	-26.307	-46.0391	
292	11	2	0.4238	5.2432	-26.307	-46.0391	
293	11	2	0.4238	3.9099	-25.3642	-46.0391	
294	12	1	-0.8476	7.6536	-26.3568	-45.9987	
295	12	2	0.4238	8.6536	-26.3568	-45.9987	
296	12	2	0.4238	7.3202	-25.414	-45.9987	
297	13	1	-0.8476	11.0294	-26.3707	-46.0294	
298	13	2	0.4238	12.0294	-26.3707	-46.0294	
299	13	2	0.4238	10.6961	-25.4279	-46.0294	
300	14	1	-0.8476	14.4692	-26.3171	-46.0345	
301	14	2	0.4238	15.4692	-26.3171	-46.0345	
302	14	2	0.4238	14.1358	-25.3743	-46.0345	
303	15	1	-0.8476	17.8858	-26.38	-45.9874	
304	15	2	0.4238	18.8858	-26.38	-45.9874	
305	15	2	0.4238	17.5525	-25.4372	-45.9874	
306	16	1	-0.8476	21.2328	-26.3431	-45.9579	
307	16	2	0.4238	22.2328	-26.3431	-45.9579	
308	16	2	0.4238	20.8995	-25.4003	-45.9579	
309	17	1	-0.8476	24.6944	-26.3518	-46.0239	
310	17	2	0.4238	25.6944	-26.3518	-46.0239	
311	17	2	0.4238	24.3611	-25.409	-46.0239	
312	18	1	-0.8476	-26.3437	-22.9168	-45.9898	
313	18	2	0.4238	-25.3437	-22.9168	-45.9898	
314	18	2	0.4238	-26.677	-21.974	-45.9898	
315	19	1	-0.8476	-22.9	-22.9955	-46.0152	
316	19	2	0.4238	-21.9	-22.9955	-46.0152	
317	19	2	0.4238	-23.2333	-22.0527	-46.0152	
318	20	1	-0.8476	-19.5807	-22.9139	-45.9658	
319	20	2	0.4238	-18.5807	-22.9139	-45.9658	
320	20	2	0.4238	-19.914	-21.9711	-45.9658	
321	21	1	-0.8476	-16.1221	-22.9198	-46.0318	
322	21	2	0.4238	-15.1221	-22.9198	-46.0318	
323	21	2	0.4238	-16.4554	-21.977	-46.0318	
324	22	1	-0.8476	-12.7765	-22.944	-46.0202	
325	22	2	0.4238	-11.7765	-22.944	-46.0202	
326	22	2	0.4238	-13.1098	-22.0012	-46.0202	
327	23	1	-0.8476	-9.3043	-22.9877	-45.983	
328	23	2	0.4238	-8.3043	-22.9877	-45.983	
329	23	2	0.4238	-9.6376	-22.0449	-45.983	
330	24	1	-0.8476	-5.9477	-22.9945	-45.9712	
331	24	2	0.4238	-4.9477	-22.9945	-45.9712	
332	24	2	0.4238	-6.281	-22.0517	-45.9712	
333	25	1	-0.8476	-2.5755	-22.9779	-46.0202	
334	25	2	0.4238	-1.5755	-22.9779	-46.0202	
335	25	2	0.4238	-2.9088	-22.0351	-46.0202	
336	26	1	-0.8476	0.87404	-22.947	-46.026	
337	26	2	0.4238	1.874	-22.947	-46.026	
338	26	2	0.4238	0.54073	-22.0042	-46.026	
339	27	1	-0.8476	4.2753	-22.9501	-46.036	
340	27	2	0.4238	5.2753	-22.9501	-46.036	
341	27	2	0.4238	3.9419	-22.0073	-46.036	
342	28	1	-0.8476	7.6851	-22.9749	-45.9812	
343	28	2	0.4238	8.6851	-22.9749	-45.9812	
344	28	2	0.4238	7.3517	-22.0321	-45.9812	
345	29	1	-0.8476	11.0136	-22.9944	-45.9939	
346	29	2	0.4238	12.0136	-22.9944	-45.9939	
347	29	2	0.4238	10.6803	-22.0516	-45.9939	
348	30	1	-0.8476	14.4032	-22.9513	-46.0475	
349	30	2	0.4238	15.4032	-22.9513	-46.0475	
350	30	2	0.4238	14.0699	-22.0085	-46.0475	
351	31	1	-0.8476	17.8121	-22.9592	-45.9575	
352	31	2	0.4238	18.8121	-22.9592	-45.9575	
353	31	2	0.4238	17.4788	-22.0164	-45.9575	
354	32	1	-0.8476	21.2555	-22.956	-45.9692	
355	32	2	0.4238	22.2555	-22.956	-45.9692	
356	32	2	0.4238	20.9222	-22.0132	-45.9692	
357	33	1	-0.8476	24.6939	-22.9338	-45.9863	
358	33	2	0.4238	25.6939	-22.9338	-45.9863	
359	33	2	0.4238	24.3606	-21.991	-45.9863	
360	34	1	-0.8476	-26.3191	-19.5095	-45.9884	
361	34	2	0.4238	-25.3191	-19.5095	-45.9884	
362	34	2	0.4238	-26.6524	-18.5667	-45.9884	
363	35	1	-0.8476	-22.9085	-19.5203	-46.0329	
364	35	2	0.4238	-21.9085	-19.5203	-46.0329	
365	35	2	0.4238	-23.2418	-18.5775	-46.0329	
366	36	1	-0.8476	-19.5486	-19.5781	-46.0345	
367	36	2	0.4238	-18.5486	-19.5781	-46.0345	
368	36	2	0.4238	-19.8819	-18.6353	-46.0345	
369	37	1	-0.8476	-16.1627	-19.5435	-45.9929	
370	37	2	0.4238	-15.1627	-19.5435	-45.9929	
371	37	2	0.4238	-16.496	-18.6007	-45.9929	
372	38	1	-0.8476	-12.745	-19.5205	-46.0007	
373	38	2	0.4238	-11.745	-19.5205	-46.0007	
374	38	2	0.4238	-13.0783	-18.5777	-46.0007	
375	39	1	-0.8476	-9.3608	-19.5447	-45.9602	
376	39	2	0.4238	-8.3608	-19.5447	-45.9602	
377	39	2	0.4238	-9.6941	-18.6019	-45.9602	
378	40	1	-0.8476	-5.9791	-19.5706	-46.0043	
379	40	2	0.4238	-4.9791	-19.5706	-46.0043	
380	40	2	0.4238	-6.3124	-18.6278	-46.0043	
381	41	1	-0.8476	-2.5971	-19.5446	-46.0451	
382	41	2	0.4238	-1.5971	-19.5446	-46.0451	
383	41	2	0.4238	-2.9304	-18.6018	-46.0451	
384	42	1	-0.8476	0.8369	-19.5808	-46.0272	
385	42	2	0.4238	1.8369	-19.5808	-46.0272	
386	42	2	0.4238	0.50359	-18.638	-46.0272	
387	43	1	-0.8476	4.2457	-19.5902	-45.9728	
388	43	2	0.4238	5.2457	-19.5902	-45.9728	
389	43	2	0.4238	3.9124	-18.6474	-45.9728	
390	44	1	-0.8476	7.6529	-19.5814	-45.9964	
391	44	2	0.4238	8.6529	-19.5814	-45.9964	
392	44	2	0.4238	7.3195	-18.6386	-45.9964	
393	45	1	-0.8476	11.0933	-19.548	-46.0472	
394	45	2	0.4238	12.0933	-19.548	-46.0472	
395	45	2	0.4238	10.76	-18.6052	-46.0472	
396	46	1	-0.8476	14.4734	-19.5144	-46.0282	
397	46	2	0.4238	15.4734	-19.5144	-46.0282	
398	46	2	0.4238	14.1401	-18.5716	-46.0282	
399	47	1	-0.8476	17.823	-19.5972	-46.0116	
400	47	2	0.4238	18.823	-19.5972	-46.0116	
401	47	2	0.4238	17.4897	-18.6544	-46.0116	
402	48	1	-0.8476	21.2422	-19.5613	-45.9771	
403	48	2	0.4238	22.2422	-19.5613	-45.9771	
404	48	2	0.4238	20.9089	-18.6185	-45.9771	
405	49	1	-0.8476	24.6701	-19.5567	-45.9848	
406	49	2	0.4238	25.6701	-19.5567	-45.9848	
407	49	2	0.4238	24.3368	-18.6139	-45.9848	
408	50	1	-0.8476	-26.3784	-16.1592	-46.0144	
409	50	2	0.4238	-25.3784	-16.1592	-46.0144	
410	50	2	0.4238	-26.7117	-15.2164	-46.0144	
411	51	1	-0.8476	-22.9376	-16.1193	-46.0274	
412	51	2	0.4238	-21.9376	-16.1193	-46.0274	
413	51	2	0.4238	-23.2709	-15.1765	-46.0274	
414	52	1	-0.8476	-19.5278	-16.1198	-46.0372	
415	52	2	0.4238	-18.5278	-16.1198	-46.0372	
416	52	2	0.4238	-19.8611	-15.177	-46.0372	
417	53	1	-0.8476	-16.1614	-16.1989	-45.9693	
418	53	2	0.4238	-15.1614	-16.1989	-45.9693	
419	53	2	0.4238	-16.4947	-15.2561	-45.9693	
420	54	1	-0.8476	-12.7015	-16.1951	-46.0051	
421	54	2	0.4238	-11.7015	-16.1951	-46.0051	
422	54	2	0.4238	-13.0348	-15.2523	-46.0051	
423	55	1	-0.8476	-9.324	-16.109	-46.0235	
424	55	2	0.4238	-8.324	-16.109	-46.0235	
425	55	2	0.4238	-9.6573	-15.1662	-46.0235	
426	56	1	-0.8476	-5.9667	-16.1221	-46.0103	
427	56	2	0.4238	-4.9667	-16.1221	-46.0103	
428	56	2	0.4238	-6.3	-15.1793	-46.0103	
429	57	1	-0.8476	-2.5759	-16.1432	-45.9576	
430	57	2	0.4238	-1.5759	-16.1432	-45.9576	
431	57	2	0.4238	-2.9092	-15.2004	-45.9576	
432	58	1	-0.8476	0.8051	-16.106	-46.0153	
433	58	2	0.4238	1.8051	-16.106	-46.0153	
434	58	2	0.4238	0.47179	-15.1632	-46.0153	
435	59	1	-0.8476	4.2487	-16.1137	-45.9965	
436	59	2	0.4238	5.2487	-16.1137	-45.9965	
437	59	2	0.4238	3.9154	-15.1709	-45.9965	
438	60	1	-0.8476	7.6558	-16.1708	-45.9588	
439	60	2	0.4238	8.6558	-16.1708	-45.9588	
440	60	2	0.4238	7.3224	-15.228	-45.9588	
441	61	1	-0.8476	11.004	-16.1457	-45.9715	
442	61	2	0.4238	12.004	-16.1457	-45.9715	
443	61	2	0.4238	10.6707	-15.2029	-45.9715	
444	62	1	-0.8476	14.4523	-16.1138	-46.0182	
445	62	2	0.4238	15.4523	-16.1138	-46.0182	
446	62	2	0.4238	14.119	-15.171	-46.0182	
447	63	1	-0.8476	17.8638	-16.1741	-45.9661	
448	63	2	0.4238	18.8638	-16.1741	-45.9661	
449	63	2	0.4238	17.5305	-15.2313	-45.9661	
450	64	1	-0.8476	21.2092	-16.1926	-46.0075	
451	64	2	0.4238	22.2092	-16.1926	-46.0075	
452	64	2	0.4238	20.8759	-15.2498	-46.0075	
453	65	1	-0.8476	24.6043	-16.1444	-45.9802	
454	65	2	0.4238	25.6043	-16.1444	-45.9802	
455	65	2	0.4238	24.271	-15.2016	-45.9802	
456	66	1	-0.8476	-26.317	-12.7719	-45.9798	
457	66	2	0.4238	-25.317	-12.7719	-45.9798	
458	66	2	0.4238	-26.6503	-11.8291	-45.9798	
459	67	1	-0.8476	-22.9716	-12.7131	-45.9787	
460	67	2	0.4238	-21.9716	-12.7131	-45.9787	
461	67	2	0.4238	-23.3049	-11.7703	-45.9787	
462	68	1	-0.8476	-19.528	-12.7588	-45.9651	
463	68	2	0.4238	-18.528	-12.7588	-45.9651	
464	68	2	0.4238	-19.8613	-11.816	-45.9651	
465	69	1	-0.8476	-16.1908	-12.7034	-46.0199	
466	69	2	0.4238	-15.1908	-12.7034	-46.0199	
467	69	2	0.4238	-16.5241	-11.7606	-46.0199	
468	70	1	-0.8476	-12.7546	-12.7572	-46.0002	
469	70	2	0.4238	-11.7546	-12.7572	-46.0002	
470	70	2	0.4238	-13.0879	-11.8144	-46.0002	
471	71	1	-0.8476	-9.3096	-12.7297	-46.0459	
472	71	2	0.4238	-8.3096	-12.7297	-46.0459	
473	71	2	0.4238	-9.6429	-11.7869	-46.0459	
474	72	1	-0.8476	-5.9804	-12.7276	-45.9764	
475	72	2	0.4238	-4.9804	-12.7276	-45.9764	
476	72	2	0.4238	-6.3137	-11.7848	-45.9764	
477	73	1	-0.8476	-2.5303	-12.7824	-45.9602	
478	73	2	0.4238	-1.5303	-12.7824	-45.9602	
479	73	2	0.4238	-2.8636	-11.8396	-45.9602	
480	74	1	-0.8476	0.81576	-12.7146	-46.05	
481	74	2	0.4238	1.8158	-12.7146	-46.05	
482	74	2	0.4238	0.48245	-11.7718	-46.05	
483	75	1	-0.8476	4.2824	-12.7109	-45.9591	
484	75	2	0.4238	5.2824	-12.7109	-45.9591	
485	75	2	0.4238	3.9491	-11.7681	-45.9591	
486	76	1	-0.8476	7.6381	-12.7775	-45.979	
487	76	2	0.4238	8.6381	-12.7775	-45.979	
488	76	2	0.4238	7.3048	-11.8347	-45.979	
489	77	1	-0.8476	11.0259	-12.7508	-45.9757	
490	77	2	0.4238	12.0259	-12.7508	-45.9757	
491	77	2	0.4238	10.6926	-11.808	-45.9757	
492	78	1	-0.8476	14.4084	-12.7856	-45.9509	
493	78	2	0.4238	15.4084	-12.7856	-45.9509	
494	78	2	0.4238	14.0751	-11.8428	-45.9509	
495	79	1	-0.8476	17.8224	-12.7293	-46.0338	
496	79	2	0.4238	18.8224	-12.7293	-46.0338	
497	79	2	0.4238	17.4891	-11.7865	-46.0338	
498	80	1	-0.8476	21.2938	-12.7321	-45.9557	
499	80	2	0.4238	22.2938	-12.7321	-45.9557	
500	80	2	0.4238	20.9604	-11.7893	-45.9557	
501	81	1	-0.8476	24.6427	-12.7405	-46.0082	
502	81	2	0.4238	25.6427	-12.7405	-46.0082	
503	81	2	0.4238	24.3094	-11.7977	-46.0082	
504	82	1	-0.8476	-26.3988	-9.3764	-46.0104	
505	82	2	0.4238	-25.3988	-9.3764	-46.0104	
506	82	2	0.4238	-26.7321	-8.4336	-46.0104	
507	83	1	-0.8476	-22.9116	-9.3355	-45.9991	
508	83	2	0.4238	-21.9116	-9.3355	-45.9991	
509	83	2	0.4238	-23.2449	-8.3927	-45.9991	
510	84	1	-0.8476	-19.5747	-9.3845	-45.9997	
511	84	2	0.4238	-18.5747	-9.3845	-45.9997	
512	84	2	0.4238	-19.908	-8.4417	-45.9997	
513	85	1	-0.8476	-16.1346	-9.3902	-46.0039	
514	85	2	0.4238	-15.1346	-9.3902	-46.0039	
515	85	2	0.4238	-16.4679	-8.4474	-46.0039	
516	86	1	-0.8476	-12.7497	-9.388	-46.0248	
517	86	2	0.4238	-11.7497	-9.388	-46.0248	
518	86	2	0.4238	-13.083	-8.4452	-46.0248	
519	87	1	-0.8476	-9.3571	-9.3047	-45.9898	
520	87	2	0.4238	-8.3571	-9.3047	-45.9898	
521	87	2	0.4238	-9.6905	-8.3619	-45.9898	
522	88	1	-0.8476	-5.9077	-9.3656	-46.024	
523	88	2	0.4238	-4.9077	-9.3656	-46.024	
524	88	2	0.4238	-6.241	-8.4228	-46.024	
525	89	1	-0.8476	-2.5775	-9.3872	-45.9745	
526	89	2	0.4238	-1.5775	-9.3872	-45.9745	
527	89	2	0.4238	-2.9108	-8.4444	-45.9745	
528	90	1	-0.8476	0.89308	-9.3052	-46.0436	
529	90	2	0.4238	1.8931	-9.3052	-46.0436	
530	90	2	0.4238	0.55977	-8.3624	-46.0436	
531	91	1	-0.8476	4.2658	-9.3231	-46.0467	
532	91	2	0.4238	5.2658	-9.3231	-46.0467	
533	91	2	0.4238	3.9325	-8.3803	-46.0467	
534	92	1	-0.8476	7.6226	-9.3236	-45.9864	
535	92	2	0.4238	8.6226	-9.3236	-45.9864	
536	92	2	0.4238	7.2893	-8.3808	-45.9864	
537	93	1	-0.8476	11.0613	-9.3357	-46.0371	
538	93	2	0.4238	12.0613	-9.3357	-46.0371	
539	93	2	0.4238	10.728	-8.3929	-46.0371	
540	94	1	-0.8476	14.4028	-9.3768	-45.957	
541	94	2	0.4238	15.4028	-9.3768	-45.957	
542	94	2	0.4238	14.0695	-8.434	-45.957	
543	95	1	-0.8476	17.8877	-9.3827	-46.0062	
544	95	2	0.4238	18.8877	-9.3827	-46.0062	
545	95	2	0.4238	17.5543	-8.4399	-46.0062	
546	96	1	-0.8476	21.2329	-9.3342	-46.0238	
547	96	2	0.4238	22.2329	-9.3342	-46.0238	
548	96	2	0.4238	20.8996	-8.3914	-46.0238	
549	97	1	-0.8476	24.6246	-9.3458	-45.9871	
550	97	2	0.4238	25.6246	-9.3458	-45.9871	
551	97	2	0.4238	24.2913	-8.403	-45.9871	
552	98	1	-0.8476	-26.3741	-5.9248	-46.0433	
553	98	2	0.4238	-25.3741	-5.9248	-46.0433	
554	98	2	0.4238	-26.7074	-4.982	-46.0433	
555	99	1	-0.8476	-22.9158	-5.9033	-45.9503	
556	99	2	0.4238	-21.9158	-5.9033	-45.9503	
557	99	2	0.4238	-23.2491	-4.9605	-45.9503	
558	100	1	-0.8476	-19.5051	-5.9845	-45.9976	
559	100	2	0.4238	-18.5051	-5.9845	-45.9976	
560	100	2	0.4238	-19.8385	-5.0417	-45.9976	
561	101	1	-0.8476	-16.1936	-5.9252	-45.9958	
562	101	2	0.4238	-15.1936	-5.9252	-45.9958	
563	101	2	0.4238	-16.5269	-4.9824	-45.9958	
564	102	1	-0.8476	-12.7368	-5.9386	-46.0488	
565	102	2	0.4238	-11.7368	-5.9386	-46.0488	
566	102	2	0.4238	-13.0701	-4.9958	-46.0488	
567	103	1	-0.8476	-9.3857	-5.9812	-46.0012	
568	103	2	0.4238	-8.3857	-5.9812	-46.0012	
569	103	2	0.4238	-9.719	-5.0384	-46.0012	
570	104	1	-0.8476	-5.9152	-5.993	-46.0428	
571	104	2	0.4238	-4.9152	-5.993	-46.0428	
572	104	2	0.4238	-6.2485	-5.0502	-46.0428	
573	105	1	-0.8476	-2.5955	-5.9164	-46.0125	
574	105	2	0.4238	-1.5955	-5.9164	-46.0125	
575	105	2	0.4238	-2.9288	-4.9736	-46.0125	
576	106	1	-0.8476	0.89124	-5.9968	-46.0005	
577	106	2	0.4238	1.8912	-5.9968	-46.0005	
578	106	2	0.4238	0.55793	-5.054	-46.0005	
579	107	1	-0.8476	4.2141	-5.9991	-45.9857	
580	107	2	0.4238	5.2141	-5.9991	-45.9857	
581	107	2	0.4238	3.8808	-5.0563	-45.9857	
582	108	1	-0.8476	7.6271	-5.9875	-46.0231	
583	108	2	0.4238	8.6271	-5.9875	-46.0231	
584	108	2	0.4238	7.2937	-5.0447	-46.0231	
585	109	1	-0.8476	11.0049	-5.9756	-46.0459	
586	109	2	0.4238	12.0049	-5.9756	-46.0459	
587	109	2	0.4238	10.6716	-5.0328	-46.0459	
588	110	1	-0.8476	14.4273	-5.9912	-46.0498	
589	110	2	0.4238	15.4273	-5.9912	-46.0498	
590	110	2	0.4238	14.094	-5.0484	-46.0498	
591	111	1	-0.8476	17.8912	-5.9348	-46.0458	
592	111	2	0.4238	18.8912	-5.9348	-46.0458	
593	111	2	0.4238	17.5579	-4.992	-46.0458	
594	112	1	-0.8476	21.2032	-5.9341	-45.9844	
595	112	2	0.4238	22.2032	-5.9341	-45.9844	
596	112	2	0.4238	20.8699	-4.9913	-45.9844	
597	113	1	-0.8476	24.6132	-5.9064	-45.9953	
598	113	2	0.4238	25.6132	-5.9064	-45.9953	
599	113	2	0.4238	24.2799	-4.9636	-45.9953	
600	114	1	-0.8476	-26.3464	-2.575	-45.9662	
601	114	2	0.4238	-25.3464	-2.575	-45.9662	
602	114	2	0.4238	-26.6797	-1.6322	-45.9662	
603	115	1	-0.8476	-22.9218	-2.5914	-46.0454	
604	115	2	0.4238	-21.9218	-2.5914	-46.0454	
605	115	2	0.4238	-23.2551	-1.6486	-46.0454	
606	116	1	-0.8476	-19.51	-2.5723	-45.9946	
607	116	2	0.4238	-18.51	-2.5723	-45.9946	
608	116	2	0.4238	-19.8433	-1.6295	-45.9946	
609	117	1	-0.8476	-16.1858	-2.5472	-45.9829	
610	117	2	0.4238	-15.1858	-2.5472	-45.9829	
611	117	2	0.4238	-16.5192	-1.6044	-45.9829	
612	118	1	-0.8476	-12.74	-2.5887	-45.9727	
613	118	2	0.4238	-11.74	-2.5887	-45.9727	
614	118	2	0.4238	-13.0734	-1.6459	-45.9727	
615	119	1	-0.8476	-9.3093	-2.5501	-46.0176	
616	119	2	0.4238	-8.3093	-2.5501	-46.0176	
617	119	2	0.4238	-9.6426	-1.6073	-46.0176	
618	120	1	-0.8476	-5.9143	-2.5957	-45.9913	
619	120	2	0.4238	-4.9143	-2.5957	-45.9913	
620	120	2	0.4238	-6.2477	-1.6529	-45.9913	
621	121	1	-0.8476	-2.541	-2.5718	-45.9935	
622	121	2	0.4238	-1.541	-2.5718	-45.9935	
623	121	2	0.4238	-2.8743	-1.629	-45.9935	
624	122	1	-0.8476	0.84787	-2.5147	-46.0044	
625	122	2	0.4238	1.8479	-2.5147	-46.0044	
626	122	2	0.4238	0.51456	-1.5719	-46.0044	
627	123	1	-0.8476	4.2705	-2.5306	-45.9817	
628	123	2	0.4238	5.2705	-2.5306	-45.9817	
629	123	2	0.4238	3.9372	-1.5878	-45.9817	
630	124	1	-0.8476	7.6446	-2.5591	-45.9863	
631	124	2	0.4238	8.6446	-2.5591	-45.9863	
632	124	2	0.4238	7.3113	-1.6163	-45.9863	
633	125	1	-0.8476	11.035	-2.5788	-46.0072	
634	125	2	0.4238	12.035	-2.5788	-46.0072	
635	125	2	0.4238	10.7017	-1.636	-46.0072	
636	126	1	-0.8476	14.4395	-2.5515	-45.9559	
637	126	2	0.4238	15.4395	-2.5515	-45.9559	
638	126	2	0.4238	14.1061	-1.6087	-45.9559	
639	127	1	-0.8476	17.8293	-2.5905	-45.9609	
640	127	2	0.4238	18.8293	-2.5905	-45.9609	
641	127	2	0.4238	17.496	-1.6477	-45.9609	
642	128	1	-0.8476	21.2739	-2.5996	-45.9714	
643	128	2	0.4238	22.2739	-2.5996	-45.9714	
644	128	2	0.4238	20.9406	-1.6568	-45.9714	
645	129	1	-0.8476	24.6645	-2.5974	-46.0368	
646	129	2	0.4238	25.6645	-2.5974	-46.0368	
647	129	2	0.4238	24.3312	-1.6546	-46.0368	
648	130	1	-0.8476	-26.3301	0.84766	-46.0398	
649	130	2	0.4238	-25.3301	0.84766	-46.0398	
650	130	2	0.4238	-26.6634	1.7905	-46.0398	
651	131	1	-0.8476	-22.9495	0.80346	-46.0472	
652	131	2	0.4238	-21.9495	0.80346	-46.0472	
653	131	2	0.4238	-23.2828	1.7463	-46.0472	
654	132	1	-0.8476	-19.596	0.80683	-46.0249	
655	132	2	0.4238	-18.596	0.80683	-46.0249	
656	132	2	0.4238	-19.9293	1.7496	-46.0249	
657	133	1	-0.8476	-16.1549	0.85295	-45.9529	
658	133	2	0.4238	-15.1549	0.85295	-45.9529	
659	133	2	0.4238	-16.4882	1.7958	-45.9529	
660	134	1	-0.8476	-12.7145	0.89201	-45.9824	
661	134	2	0.4238	-11.7145	0.89201	-45.9824	
662	134	2	0.4238	-13.0478	1.8348	-45.9824	
663	135	1	-0.8476	-9.3967	0.89923	-45.9526	
664	135	2	0.4238	-8.3967	0.89923	-45.9526	
665	135	2	0.4238	-9.73	1.842	-45.9526	
666	136	1	-0.8476	-5.9051	0.89916	-45.9957	
667	136	2	0.4238	-4.9051	0.89916	-45.9957	
668	136	2	0.4238	-6.2384	1.842	-45.9957	
669	137	1	-0.8476	-2.5351	0.86275	-46.0383	
670	137	2	0.4238	-1.5351	0.86275	-46.0383	
671	137	2	0.4238	-2.8684	1.8055	-46.0383	
672	138	1	-0.8476	0.83536	0.88755	-46.024	
673	138	2	0.4238	1.8354	0.88755	-46.024	
674	138	2	0.4238	0.50205	1.8304	-46.024	
675	139	1	-0.8476	4.2656	0.84149	-45.9745	
676	139	2	0.4238	5.2656	0.84149	-45.9745	
677	139	2	0.4238	3.9323	1.7843	-45.9745	
678	140	1	-0.8476	7.6258	0.88163	-45.9772	
679	140	2	0.4238	8.6258	0.88163	-45.9772	
680	140	2	0.4238	7.2925	1.8244	-45.9772	
681	141	1	-0.8476	11.015	0.81209	-45.9579	
682	141	2	0.4238	12.015	0.81209	-45.9579	
683	141	2	0.4238	10.6817	1.7549	-45.9579	
684	142	1	-0.8476	14.4896	0.83023	-46.0168	
685	142	2	0.4238	15.4896	0.83023	-46.0168	
686	142	2	0.4238	14.1562	1.773	-46.0168	
687	143	1	-0.8476	17.8724	0.89196	-46.0179	
688	143	2	0.4238	18.8724	0.89196	-46.0179	
689	143	2	0.4238	17.5391	1.8348	-46.0179	
690	144	1	-0.8476	21.2208	0.85416	-46.0138	
691	144	2	0.4238	22.2208	0.85416	-46.0138	
692	144	2	0.4238	20.8875	1.797	-46.0138	
693	145	1	-0.8476	24.6174	0.8212	-45.9603	
694	145	2	0.4238	25.6174	0.8212	-45.9603	
695	145	2	0.4238	24.2841	1.764	-45.9603	
696	146	1	-0.8476	-26.3825	4.2513	-46.004	
697	146	2	0.4238	-25.3825	4.2513	-46.004	
698	146	2	0.4238	-26.7159	5.1941	-46.004	
699	147	1	-0.8476	-22.9163	4.2097	-45.9704	
700	147	2	0.4238	-21.9163	4.2097	-45.9704	
701	147	2	0.4238	-23.2496	5.1525	-45.9704	
702	148	1	-0.8476	-19.5601	4.2468	-46.0153	
703	148	2	0.4238	-18.5601	4.2468	-46.0153	
704	148	2	0.4238	-19.8934	5.1896	-46.0153	
705	149	1	-0.8476	-16.1288	4.2183	-45.9604	
706	149	2	0.4238	-15.1288	4.2183	-45.9604	
707	149	2	0.4238	-16.4621	5.1611	-45.9604	
708	150	1	-0.8476	-12.7661	4.259	-46.0312	
709	150	2	0.4238	-11.7661	4.259	-46.0312	
710	150	2	0.4238	-13.0995	5.2018	-46.0312	
711	151	1	-0.8476	-9.3486	4.2046	-45.9624	
712	151	2	0.4238	-8.3486	4.2046	-45.9624	
713	151	2	0.4238	-9.6819	5.1474	-45.9624	
714	152	1	-0.8476	-5.9551	4.2369	-45.9613	
715	152	2	0.4238	-4.9551	4.2369	-45.9613	
716	152	2	0.4238	-6.2884	5.1797	-45.9613	
717	153	1	-0.8476	-2.5864	4.2303	-45.9988	
718	153	2	0.4238	-1.5864	4.2303	-45.9988	
719	153	2	0.4238	-2.9198	5.1731	-45.9988	
720	154	1	-0.8476	0.85699	4.2904	-45.9792	
721	154	2	0.4238	1.857	4.2904	-45.9792	
722	154	2	0.4238	0.52368	5.2332	-45.9792	
723	155	1	-0.8476	4.2114	4.257	-45.9785	
724	155	2	0.4238	5.2114	4.257	-45.9785	
725	155	2	0.4238	3.8781	5.1998	-45.9785	
726	156	1	-0.8476	7.6462	4.2885	-45.9801	
727	156	2	0.4238	8.6462	4.2885	-45.9801	
728	156	2	0.4238	7.3128	5.2313	-45.9801	
729	157	1	-0.8476	11.0368	4.2233	-45.9681	
730	157	2	0.4238	12.0368	4.2233	-45.9681	
731	157	2	0.4238	10.7034	5.1661	-45.9681	
732	158	1	-0.8476	14.4321	4.2047	-46.043	
733	158	2	0.4238	15.4321	4.2047	-46.043	
734	158	2	0.4238	14.0988	5.1475	-46.043	
735	159	1	-0.8476	17.8815	4.2371	-46.0116	
736	159	2	0.4238	18.8815	4.2371	-46.0116	
737	159	2	0.4238	17.5482	5.1799	-46.0116	
738	160	1	-0.8476	21.2651	4.2254	-45.9815	
739	160	2	0.4238	22.2651	4.2254	-45.9815	
740	160	2	0.4238	20.9318	5.1682	-45.9815	
741	161	1	-0.8476	24.6775	4.2724	-46.0451	
742	161	2	0.4238	25.6775	4.2724	-46.0451	
743	161	2	0.4238	24.3442	5.2152	-46.0451	
744	162	1	-0.8476	-26.3296	7.6825	-46.0196	
745	162	2	0.4238	-25.3296	7.6825	-46.0196	
746	162	2	0.4238	-26.6629	8.6253	-46.0196	
747	163	1	-0.8476	-22.927	7.6135	-45.9716	
748	163	2	0.4238	-21.927	7.6135	-45.9716	
749	163	2	0.4238	-23.2603	8.5563	-45.9716	
750	164	1	-0.8476	-19.5533	7.6494	-45.999	
751	164	2	0.4238	-18.5533	7.6494	-45.999	
752	164	2	0.4238	-19.8866	8.5922	-45.999	
753	165	1	-0.8476	-16.1204	7.626	-46.0126	
754	165	2	0.4238	-15.1204	7.626	-46.0126	
755	165	2	0.4238	-16.4537	8.5688	-46.0126	
756	166	1	-0.8476	-12.7833	7.6439	-45.9751	
757	166	2	0.4238	-11.7833	7.6439	-45.9751	
758	166	2	0.4238	-13.1166	8.5867	-45.9751	
759	167	1	-0.8476	-9.306	7.6193	-46.0175	
760	167	2	0.4238	-8.306	7.6193	-46.0175	
761	167	2	0.4238	-9.6393	8.5621	-46.0175	
762	168	1	-0.8476	-5.9064	7.6855	-45.9559	
763	168	2	0.4238	-4.9064	7.6855	-45.9559	
764	168	2	0.4238	-6.2397	8.6283	-45.9559	
765	169	1	-0.8476	-2.5143	7.6068	-46.0082	
766	169	2	0.4238	-1.5143	7.6068	-46.0082	