LAMMPS data file via write_data, version 24 Dec 2020, timestep = 0

13763 atoms
15 atom types
9330 bonds
8 bond types
5113 angles
14 angle types
1193 dihedrals
15 dihedral types
147 impropers
1 improper types

-27.2 27.2 xlo xhi
-27.2 27.2 ylo yhi
-50 50 zlo zhi

Masses

1 15.9994
2 1.008
3 12.011
4 1.008
5 12.011
6 15.999
7 1.008
8 15.999
9 15.999
10 12.011
11 15.999
12 15.999
13 12.011
14 12.011
15 15.999

Pair Coeffs # lj/cut/coul/long

1 0.15535 3.166
2 0 0
3 0.07 3.55
4 0.03 2.42
5 0.066 3.5
6 0.17 3.12
7 0 0
8 0.14 2.9
9 0.17 3.07
10 0.105 3.75
11 0.21 2.96
12 0.17 3
13 0.07 3.55
14 0.105 3.75
15 0.21 2.96

Bond Coeffs # harmonic

1 0 1
2 268 1.529
3 317 1.51
4 320 1.41
5 367 1.08
6 450 1.364
7 469 1.4
8 553 0.945

Angle Coeffs # harmonic

1 0 109.47
2 35 113
3 35 120
4 40 109.5
5 50 109.5
6 55 108.5
7 58.35 112.7
8 63 114
9 63 120
10 70 120
11 70 123
12 70 130
13 70 124
14 35 117

Dihedral Coeffs # opls

1 -4.344 -1.714 0 0
2 -1.552 0 0 0
3 -0.9 0 0 0
4 -0.356 -0.174 0.492 0
5 0 -8 0 0
6 0 0 0 0
7 0 0 0.318 0
8 0 0 0.366 0
9 0 0 0.468 0
10 0 1.682 0 0
11 0 7.25 0 0
12 1.3 -0.05 0.2 0
13 1.711 -0.5 0.663 0
14 2.817 -0.169 0.543 0
15 9.508 0 0 0

Improper Coeffs # harmonic

1 5 180

Atoms # full

264 2 1 -0.8476 -26.191195752398805 -27.066970596638086 -45.53894686854291 0 0 0
265 2 2 0.4238 -25.39013221241437 -26.649575944705205 -45.96799104977071 0 0 0
266 2 2 0.4238 -26.102847519919138 -27.012714444927852 -44.544335959785464 0 0 0
267 3 1 -0.8476 -23.889020876125073 -25.986585342253775 -46.49394303179834 0 0 0
268 3 2 0.4238 -23.23486295438351 -26.360808735469504 -47.15123616685519 0 0 0
269 3 2 0.4238 -23.493786429010807 -25.181327325853925 -46.05195970763547 0 0 0
270 4 1 -0.8476 -19.226366044333666 -27.1319010071002 -45.35862124819375 0 0 0
271 4 2 0.4238 -18.367240618034078 -26.62896710906586 -45.45328378615645 0 0 0
272 4 2 0.4238 -19.693939103833838 -26.838942218171297 -44.524624496390146 0 0 0
312 18 1 -0.8476 -27.132037555792337 -21.971249072854576 -46.247587177751164 0 0 0
313 18 2 0.4238 -26.47324420248428 -22.4510631679848 -46.82704360557943 0 0 0
314 18 2 0.4238 -26.966338517893405 -20.986437343334003 -46.29944936280032 0 0 0
315 19 1 -0.8476 -22.57446638087083 -23.772233233099666 -45.313369299454806 0 0 0
316 19 2 0.4238 -21.72127866291135 -23.284516698023918 -45.4983106397138 0 0 0
317 19 2 0.4238 -22.781649849580766 -23.722717285214593 -44.33632110146335 0 0 0
318 20 1 -0.8476 -20.00105062976806 -22.64856449674902 -45.76383479661327 0 0 0
319 20 2 0.4238 -19.642614784275352 -22.992978257420987 -46.63153457541105 0 0 0
320 20 2 0.4238 -19.5591087668111 -21.77934260099321 -45.542157811554375 0 0 0
360 34 1 -0.8476 -26.72068534540902 -19.19681038351514 -46.2920477694966 0 0 0
361 34 2 0.4238 -25.746188816337003 -19.267579237626098 -46.07909640388837 0 0 0
362 34 2 0.4238 -26.98221622296393 -18.232811793248086 -46.34009272811339 0 0 0
363 35 1 -0.8476 -24.06973896229692 -18.5170325973364 -45.43176140796216 0 0 0
364 35 2 0.4238 -23.757116739504937 -18.80405338043116 -44.52628561265438 0 0 0
366 36 1 -0.8476 -18.71366393572656 -20.387432683124043 -44.965359617948394 0 0 0
368 36 2 0.4238 -19.09199698926521 -19.793025250378264 -44.25575134256211 0 0 0
1084 275 2 0.4238 -19.814376625653132 -23.39153938297943 -43.933484828032626 0 0 0
1083 275 1 -0.8476 -19.724385967839275 -23.759049886641296 -43.00782950660201 0 0 0
1134 292 1 -0.8476 -19.814072366196672 -18.588354214302335 -42.959035304730314 0 0 0
1136 292 2 0.4238 -20.781685934043587 -18.687778653011065 -43.19106991857852 0 0 0
3388 1043 2 0.4238 -26.124811978881596 -22.208264077262147 -41.78555870015583 0 0 0
8545 2762 2 0.4238 -5.404453549923925 -26.906685688895635 -14.98711288473826 0 0 0
1040 260 2 0.4238 -20.178391518106437 -26.646996122054915 -33.78342827520283 0 0 0
1135 292 2 0.4238 -19.628153122721216 -17.639326956726446 -42.704511743747425 0 0 0
2091 611 1 -0.8476 -26.530624350435975 -5.8955945125006615 -43.07095725901604 0 0 0
11299 3680 2 0.4238 -21.93300822383237 -25.803917820386726 -10.580250255934075 0 1 0
3453 1065 1 -0.8476 -0.17589668983993378 -19.02424017720918 -38.74941878840374 0 0 0
1085 275 2 0.4238 -20.029533989175462 -24.711283150743274 -42.996142688201566 0 0 0
367 36 2 0.4238 -17.815264296833817 -20.04624174425936 -45.24188598572192 0 0 0
273 5 1 -0.8476 -16.87476823526078 -25.682051324270724 -45.17752038266207 0 0 0
274 5 2 0.4238 -16.368673411207542 -25.899988646030526 -44.343031705177054 0 0 0
275 5 2 0.4238 -16.42433351768588 -24.92621283097451 -45.65272216849092 0 0 0
276 6 1 -0.8476 -12.252772195221695 -26.679193294875326 -45.64547554134517 0 0 0
277 6 2 0.4238 -11.306339895468946 -26.35720237388351 -45.66971907210216 0 0 0
278 6 2 0.4238 -12.752363029434095 -26.30471653118764 -46.426613270448655 0 0 0
279 7 1 -0.8476 -9.80443405885448 -25.550311974441755 -45.45601227903999 0 0 0
281 7 2 0.4238 -9.335758069437073 -24.710586586309805 -45.73024591933647 0 0 0
321 21 1 -0.8476 -15.713735445307158 -23.373115081698643 -46.27207870083604 0 0 0
322 21 2 0.4238 -14.863960804965272 -22.846682559850684 -46.24465862474901 0 0 0
323 21 2 0.4238 -16.486925009135675 -22.76807334184111 -46.08207240773805 0 0 0
324 22 1 -0.8476 -13.516183220300064 -21.76968190653924 -45.900198977658 0 0 0
325 22 2 0.4238 -13.011228532505974 -22.24909836059159 -45.1824381352748 0 0 0
326 22 2 0.4238 -12.947980161318597 -21.03710781058145 -46.27500623171764 0 0 0
369 37 1 -0.8476 -16.321062563265684 -19.340645753585495 -45.687472782639496 0 0 0
370 37 2 0.4238 -15.490903159226114 -19.558473435939156 -46.20068469275567 0 0 0
371 37 2 0.4238 -16.503027752743048 -18.359260672402183 -45.74888932967115 0 0 0
372 38 1 -0.8476 -11.716215500658413 -19.624975753446684 -46.57586686657239 0 0 0
373 38 2 0.4238 -10.734970716932862 -19.817718435053084 -46.5728780376095 0 0 0
374 38 2 0.4238 -11.888461771387146 -18.765104706244085 -46.09529116556083 0 0 0
280 7 2 0.4238 -9.45808044760696 -25.85027586225061 -44.567158611676 0 0 0
1138 293 2 0.4238 -16.986774835425415 -19.202451298454665 -42.72965626498521 0 0 0
1091 277 2 0.4238 -11.355266935158888 -22.407798259227405 -43.42600721582352 0 0 0
1090 277 2 0.4238 -12.400371631748014 -23.661769712510882 -43.38198048269363 0 0 0
1089 277 1 -0.8476 -12.289212201004286 -22.699917902826126 -43.63195063760302 0 0 0
1860 534 1 -0.8476 -9.35409461808717 -22.41639176696825 -42.91501787493541 0 0 0
1137 293 1 -0.8476 -16.123844452761755 -19.704392697359488 -42.78801971621382 0 0 0
1046 262 2 0.4238 -11.995847489104827 -26.184833621214363 -43.756518991494175 0 0 0
1139 293 2 0.4238 -15.748560727352741 -19.61597256901743 -43.71070297957829 0 0 0
1813 518 2 0.4238 -14.556497418771372 -23.087801014873435 -42.18395262580253 0 0 0
1093 278 2 0.4238 -5.614424791827572 -22.74846872743131 -44.21205916162478 0 0 0
377 39 2 0.4238 -9.044808817602645 -19.95567566244876 -44.93096340020316 0 0 0
329 23 2 0.4238 -8.686419564450276 -22.116899812204217 -45.913797383725516 0 0 0
375 39 1 -0.8476 -8.71202937298244 -20.32241370627116 -45.79973324800613 0 0 0
327 23 1 -0.8476 -8.398901208892436 -23.07320989121723 -45.86084242177257 0 0 0
282 8 1 -0.8476 -5.802615951337403 -26.362775113833 -46.10900912316188 0 0 0
283 8 2 0.4238 -4.850320329834758 -26.17079589746383 -45.87178132177855 0 0 0
284 8 2 0.4238 -6.264168589657745 -25.509520199461907 -46.351754284104615 0 0 0
285 9 1 -0.8476 -2.927720685630074 -26.041090075367915 -45.3741188239503 0 0 0
286 9 2 0.4238 -2.6287918867086884 -26.04403865600981 -44.419847961433994 0 0 0
287 9 2 0.4238 -2.797263549094086 -25.128426442315874 -45.761450759673494 0 0 0
328 23 2 0.4238 -7.41087494919399 -23.13258245474405 -46.00324680669998 0 0 0
330 24 1 -0.8476 -5.450569289264131 -22.844770334927276 -46.11589837723411 0 0 0
331 24 2 0.4238 -4.49794359775473 -23.14653907457781 -46.07795210408423 0 0 0
332 24 2 0.4238 -5.481722189854326 -21.860322847116365 -46.28879326011849 0 0 0
333 25 1 -0.8476 -2.6038588089843047 -23.367153462770094 -46.085373548845546 0 0 0
334 25 2 0.4238 -2.1578979125442035 -23.223129553398927 -46.968762473598275 0 0 0
335 25 2 0.4238 -1.9934386162171327 -23.069456810588754 -45.35136817315534 0 0 0
376 39 2 0.4238 -7.8431563967921365 -19.88661086604505 -46.0345430342099 0 0 0
378 40 1 -0.8476 -6.149111889329651 -19.014909074138604 -46.182251894403706 0 0 0
379 40 2 0.4238 -5.218139135636819 -19.37265437097041 -46.25510815340942 0 0 0
381 41 1 -0.8476 -3.4306531067517527 -19.442056417026187 -46.14961950988325 0 0 0
382 41 2 0.4238 -2.6105569410826726 -19.76218763762653 -46.62391718081555 0 0 0
383 41 2 0.4238 -3.3140106017272095 -18.482682495340107 -45.89272224557264 0 0 0
1058 266 2 0.4238 -1.2979382782535664 -20.66292815492887 -44.19560121220567 0 0 0
1099 280 2 0.4238 -6.060334856431097 -19.228979306507124 -43.92935073762357 0 0 0
1104 282 1 -0.8476 -1.0171928356668913 -22.52287288687851 -44.127238511272274 0 0 0
1092 278 1 -0.8476 -6.2250565210310835 -22.539629735816206 -43.44817747828774 0 0 0
1056 266 1 -0.8476 -1.5598240752221448 -19.808957314942568 -43.74598982063484 0 0 0
1057 266 2 0.4238 -2.547267767236167 -19.67630310672161 -43.83176932671384 0 0 0
1094 278 2 0.4238 -6.303324480294813 -21.547998367643363 -43.34550578735392 0 0 0
1106 282 2 0.4238 -1.1819514600844074 -22.88073205546902 -43.20811269198287 0 0 0
1861 534 2 0.4238 -8.952875753316698 -22.82445367842272 -43.735084534963065 0 0 0
2142 628 1 -0.8476 -20.393765767180117 -0.1965943476814312 -42.32175352011408 0 0 0
2107 616 2 0.4238 -0.09981238154739736 -2.742507996300144 -37.869008858393 0 0 0
8498 2746 2 0.4238 -4.840702362615203 -26.46266012314831 -19.586468856636337 0 1 0
365 35 2 0.4238 -23.482457271564122 -17.781470468835312 -45.769472187838936 0 0 0
408 50 1 -0.8476 -26.652512953345557 -16.438978496620404 -45.90057885789727 0 0 0
409 50 2 0.4238 -25.832518264837734 -16.91755804715491 -45.586619744907786 0 0 0
410 50 2 0.4238 -26.437168088706034 -15.474688019027885 -46.05475558797605 0 0 0
411 51 1 -0.8476 -22.59289650755189 -16.328081249406473 -46.065450424557504 0 0 0
412 51 2 0.4238 -21.65439291955755 -16.065850933369227 -45.84084793865686 0 0 0
413 51 2 0.4238 -22.95246000525857 -15.71202042588638 -46.76629502419475 0 0 0
414 52 1 -0.8476 -19.957441411224462 -15.589173780116237 -45.62900780743742 0 0 0
415 52 2 0.4238 -19.33263025966444 -16.257266791496892 -46.03306566595594 0 0 0
416 52 2 0.4238 -19.539744632927217 -14.681104060942927 -45.65964743081321 0 0 0
456 66 1 -0.8476 -25.884564671706563 -13.893236488360271 -46.30626494904644 0 0 0
457 66 2 0.4238 -25.163056118094275 -13.327769958648906 -45.90667389454135 0 0 0
458 66 2 0.4238 -26.493563306254867 -13.318990652226091 -46.853405134740065 0 0 0
459 67 1 -0.8476 -23.90025235181614 -12.130972735706326 -45.31503378711648 0 0 0
460 67 2 0.4238 -23.559650600105606 -12.407043671373481 -44.41627058959915 0 0 0
461 67 2 0.4238 -23.460603255757928 -11.275878291701352 -45.589846749268965 0 0 0
462 68 1 -0.8476 -18.654003915212147 -13.142112070580769 -45.72522567021429 0 0 0
464 68 2 0.4238 -18.926524615709294 -12.565385266274324 -46.49536764478458 0 0 0
507 83 1 -0.8476 -22.573847868259403 -9.716730108276092 -45.51120573135858 0 0 0
508 83 2 0.4238 -21.694901466792743 -9.29578800618009 -45.735395316379396 0 0 0
509 83 2 0.4238 -22.87099776492604 -9.40705012714998 -44.607989119354166 0 0 0
1229 323 2 0.4238 -23.464771138258723 -16.529399397422836 -43.582422432938145 0 0 0
1227 323 1 -0.8476 -24.098863645603508 -16.19512321554487 -42.88515163679141 0 0 0
1232 324 2 0.4238 -19.682937867090846 -13.569956822811681 -43.832785004676225 0 0 0
1180 307 2 0.4238 -23.906482117137514 -14.313789413064677 -42.78943480045202 0 0 0
1230 324 1 -0.8476 -19.79402217554023 -13.685042220666674 -42.84565987777892 0 0 0
1179 307 1 -0.8476 -23.89950520611426 -13.36729106400616 -42.46680067917989 0 0 0
1181 307 2 0.4238 -23.104961954502336 -13.221957567516355 -41.877242061986934 0 0 0
1279 340 2 0.4238 -16.239825198026928 -13.711025078711808 -43.649848379696216 0 0 0
463 68 2 0.4238 -17.683762346623016 -12.99989088973549 -45.529255176770306 0 0 0
417 53 1 -0.8476 -16.628570324552175 -16.55771768278723 -45.639981052932164 0 0 0
418 53 2 0.4238 -16.163271406888985 -15.824327177102568 -46.13559711743477 0 0 0
419 53 2 0.4238 -16.653597377241304 -16.337362577386315 -44.66488245578547 0 0 0
420 54 1 -0.8476 -11.912818439762761 -17.228221308689236 -45.21103720456821 0 0 0
421 54 2 0.4238 -11.05951972800995 -16.719095166134974 -45.32360664753037 0 0 0
422 54 2 0.4238 -12.338204742602182 -16.977668524705262 -44.34139946631481 0 0 0
423 55 1 -0.8476 -9.59288785844919 -15.928724713329675 -45.53711966652419 0 0 0
425 55 2 0.4238 -9.240822770697852 -15.013929693389708 -45.339129147863126 0 0 0
465 69 1 -0.8476 -15.903055127255547 -12.428904993944984 -45.397647824101504 0 0 0
466 69 2 0.4238 -14.983389255862365 -12.587575575520772 -45.75686688197152 0 0 0
467 69 2 0.4238 -16.03411132828322 -11.450561182772175 -45.23743652826985 0 0 0
468 70 1 -0.8476 -13.418639465725063 -12.00764503320894 -46.08847486915347 0 0 0
469 70 2 0.4238 -12.501176126098654 -12.40126563442207 -46.14612764655551 0 0 0
470 70 2 0.4238 -13.360698635898625 -11.013100986003682 -46.17522161783957 0 0 0
513 85 1 -0.8476 -15.666454605714973 -9.83114152313897 -45.02691997776878 0 0 0
514 85 2 0.4238 -14.716264601762902 -9.576520870936788 -45.20666223730086 0 0 0
516 86 1 -0.8476 -12.984923943957858 -9.279144186523215 -46.28510004803953 0 0 0
517 86 2 0.4238 -12.015469703086955 -9.135321806039666 -46.08642041211912 0 0 0
515 85 2 0.4238 -16.041020349352426 -9.238830769286345 -44.313569801092655 0 0 0
520 87 2 0.4238 -9.454224474639801 -9.172964626648996 -46.299586816162964 0 0 0
424 55 2 0.4238 -9.357618841029755 -16.18044920549403 -46.475886554248234 0 0 0
1958 566 2 0.4238 -8.865246156595834 -16.603845546912286 -44.06789437540081 0 0 0
1242 328 1 -0.8476 -10.047930616329195 -8.848653424250628 -43.38881435836322 0 0 0
1239 327 1 -0.8476 -9.811513995196515 -12.231382437480187 -42.983957196636766 0 0 0
1187 309 2 0.4238 -15.980900499485967 -15.518126897754318 -42.740091807482884 0 0 0
1240 327 2 0.4238 -10.631107333583415 -11.73262549075581 -43.26593096497876 0 0 0
1244 328 2 0.4238 -9.108012507757298 -9.166826782362335 -43.26503875683706 0 0 0
1873 538 2 0.4238 -2.195341261122831 -17.22368943834142 -43.03969448987862 0 0 0
2009 583 2 0.4238 -5.256874887193932 -16.322184344179288 -43.9025929316786 0 0 0
380 40 2 0.4238 -6.115208960613959 -18.03480781733599 -45.98667040796279 0 0 0
473 71 2 0.4238 -8.98566080041248 -12.886809392147713 -44.43137008732055 0 0 0
471 71 1 -0.8476 -8.606759795658721 -13.474483499439641 -45.146263906160264 0 0 0
426 56 1 -0.8476 -5.065980403571791 -16.44840779625178 -45.773385768635116 0 0 0
427 56 2 0.4238 -4.108607416086327 -16.16862780318605 -45.84521973214333 0 0 0
428 56 2 0.4238 -5.6480259575661345 -15.758614152894276 -46.20397571586914 0 0 0
429 57 1 -0.8476 -2.637002472912795 -15.612880359045349 -45.99389327067714 0 0 0
430 57 2 0.4238 -1.697271989789739 -15.952584240335769 -45.955061683978535 0 0 0
431 57 2 0.4238 -2.6334818548836982 -14.61483013884013 -45.93157663407816 0 0 0
472 71 2 0.4238 -7.843662301861735 -13.006909896233719 -45.592422107413796 0 0 0
474 72 1 -0.8476 -6.418099760511294 -11.832469903407844 -45.737304732360286 0 0 0
475 72 2 0.4238 -6.123601889287087 -11.858158534480038 -44.781997924011236 0 0 0
476 72 2 0.4238 -6.1690460367942626 -10.951347940280847 -46.13929519095092 0 0 0
477 73 1 -0.8476 -2.061519256511645 -12.927148796507732 -45.73307538562843 0 0 0
478 73 2 0.4238 -1.1275799125903996 -12.704338475113742 -46.012562169853126 0 0 0
479 73 2 0.4238 -2.628218252036123 -12.104467510987588 -45.77832746764097 0 0 0
522 88 1 -0.8476 -5.43423339753698 -9.243960574487541 -46.37044025678227 0 0 0
523 88 2 0.4238 -4.472968152388942 -9.49262925870796 -46.25155790334591 0 0 0
525 89 1 -0.8476 -2.830754962139981 -9.865481936779057 -45.54997927778514 0 0 0
526 89 2 0.4238 -2.9406449216438686 -9.480663163534947 -44.633552134713135 0 0 0
527 89 2 0.4238 -1.9284091807841712 -9.623904984189336 -45.906928387388795 0 0 0
1152 298 1 -0.8476 -0.6799971586011329 -16.840892979816406 -44.262033314726146 0 0 0
2007 583 1 -0.8476 -5.466015069217675 -16.804468837300785 -43.051909229486576 0 0 0
1956 566 1 -0.8476 -8.62362166730878 -16.884165025012337 -43.138895174041075 0 0 0
1957 566 2 0.4238 -7.642542903452547 -16.753643032439253 -42.9958938533085 0 0 0
1962 568 1 -0.8476 -6.250803230108053 -11.832901414301421 -42.738645417496876 0 0 0
1964 568 2 0.4238 -6.671773793095241 -12.704287963101004 -42.48671251819646 0 0 0
9882 3208 1 -0.8476 -13.986010547598905 -26.542967806633538 -16.77144361401272 0 1 0
2141 627 2 0.4238 -26.076428566716288 -0.5554933616010497 -43.872904366824145 0 0 0
505 82 2 0.4238 -26.10428567576203 -8.562335819184998 -46.35964590925566 0 0 0
511 84 2 0.4238 -19.370178223336612 -8.981279787874469 -46.26532770531916 0 0 0
504 82 1 -0.8476 -26.993483474392878 -8.125211313795631 -46.22455541477825 0 0 0
510 84 1 -0.8476 -20.194446814380125 -8.466553605356555 -46.02945009542437 0 0 0
506 82 2 0.4238 -26.85933775410412 -7.162794736667149 -45.98842143205551 0 0 0
512 84 2 0.4238 -19.945536684242917 -7.525655431073752 -45.79976689458817 0 0 0
552 98 1 -0.8476 -26.511240092859975 -5.591010161052471 -45.745831563269135 0 0 0
553 98 2 0.4238 -25.521670828817708 -5.489175445949707 -45.84772544170544 0 0 0
554 98 2 0.4238 -26.94930795447525 -4.696509772031426 -45.83508178826056 0 0 0
555 99 1 -0.8476 -23.883650184066834 -5.396263728300871 -46.07102952387343 0 0 0
556 99 2 0.4238 -23.583499691171397 -6.173017864140925 -46.62471056388653 0 0 0
557 99 2 0.4238 -23.124016932487912 -4.756353025627074 -45.95496223434206 0 0 0
558 100 1 -0.8476 -19.28979601456537 -5.859664089447768 -45.5803844532693 0 0 0
559 100 2 0.4238 -18.374136795874232 -5.609679488056545 -45.89514768856404 0 0 0
560 100 2 0.4238 -19.95822394479377 -5.217797959263047 -45.956166268971266 0 0 0
600 114 1 -0.8476 -26.69971995212307 -2.6409549312477374 -46.650890043110536 0 0 0
601 114 2 0.4238 -26.121765870329842 -2.83873556166497 -47.442629837216096 0 0 0
602 114 2 0.4238 -26.350347508996915 -1.832789943831655 -46.17675056036435 0 0 0
603 115 1 -0.8476 -21.861939958006612 -3.5951311672417736 -45.63641926741054 0 0 0
604 115 2 0.4238 -21.025845816675105 -3.0763098673359472 -45.81466360980366 0 0 0
605 115 2 0.4238 -22.409774872746024 -3.118514753010255 -44.94887748695094 0 0 0
606 116 1 -0.8476 -19.609534433699846 -2.023262337143418 -45.67397288109176 0 0 0
607 116 2 0.4238 -18.696356257160016 -2.4117052847072347 -45.55061286172032 0 0 0
608 116 2 0.4238 -19.53040279178445 -1.0570090513148487 -45.91911114997947 0 0 0
1371 371 1 -0.8476 -23.48191086930832 -1.9842227725916346 -43.84195006700674 0 0 0
1373 371 2 0.4238 -23.359558084447396 -1.015872220394009 -43.62440133976183 0 0 0
1331 357 2 0.4238 -19.75920350339431 -6.569484404512703 -43.992861949344544 0 0 0
1372 371 2 0.4238 -24.454078792462905 -2.2148544153728937 -43.80073342573304 0 0 0
2139 627 1 -0.8476 -26.450169038706335 -1.111636284926713 -43.13059455976279 0 0 0
1275 339 1 -0.8476 -23.421569855631212 -9.02115377525796 -43.00207233973232 0 0 0
1329 357 1 -0.8476 -20.077795634894116 -6.82215190609207 -43.07926495989679 0 0 0
2092 611 2 0.4238 -26.77446921749838 -6.064769099355005 -44.02590241392275 0 0 0
2094 612 1 -0.8476 -22.08367515795328 -4.71713129335709 -42.47213036159622 0 0 0
1375 372 2 0.4238 -20.027644049794354 -2.5631894275690192 -44.140747284694584 0 0 0
2096 612 2 0.4238 -21.402345291916195 -4.106994280176321 -42.87651129638504 0 0 0
7271 2337 2 0.4238 -26.727328620014685 -13.06433400372497 -17.816043729936627 0 0 0
2140 627 2 0.4238 -26.58177177357913 -0.5407909822602943 -42.32015201763652 0 0 0
2732 824 2 0.4238 -0.5590498385659656 -7.007428871788795 -38.19755323895486 0 0 0
5013 1585 1 -0.8476 -25.39295211608125 -15.598309551873568 -32.172147311613024 1 0 0
519 87 1 -0.8476 -10.28311373911493 -8.631806245646477 -46.157846935012266 0 0 0
518 86 2 0.4238 -13.271449636099899 -8.6578378275361 -47.01440206779863 0 0 0
521 87 2 0.4238 -10.035778030616118 -7.672246387042814 -46.02342251365249 0 0 0
561 101 1 -0.8476 -16.832131951605124 -4.969064560421249 -46.16499301215794 0 0 0
562 101 2 0.4238 -15.878699323036564 -5.268204644405079 -46.20348239946137 0 0 0
563 101 2 0.4238 -16.870558018526356 -4.015900055987898 -45.86499157071259 0 0 0
564 102 1 -0.8476 -12.425966318757608 -5.75296797166131 -45.43238171309644 0 0 0
565 102 2 0.4238 -11.549698967827917 -6.177209576268608 -45.66079929257509 0 0 0
566 102 2 0.4238 -12.379928789602577 -4.77164523093152 -45.6191602569281 0 0 0
567 103 1 -0.8476 -9.730906850236856 -6.120502060563108 -45.603215081016394 0 0 0
569 103 2 0.4238 -9.444825481058627 -5.259149088203015 -46.02301087329585 0 0 0
609 117 1 -0.8476 -16.925299827095238 -2.5037731036730477 -45.10829124517976 0 0 0
610 117 2 0.4238 -16.653295897443133 -2.777322904490892 -44.185694708915754 0 0 0
611 117 2 0.4238 -16.602729169606953 -1.5746752752501805 -45.28919286525953 0 0 0
612 118 1 -0.8476 -11.701754512660814 -3.1718315015768463 -45.86487303897459 0 0 0
613 118 2 0.4238 -10.741662751631134 -3.229411533563282 -46.13856693791895 0 0 0
614 118 2 0.4238 -12.050076752786852 -2.255360533803435 -46.06172979466777 0 0 0
1334 358 2 0.4238 -12.832121327062596 -6.233175479834476 -43.58273287873802 0 0 0
568 103 2 0.4238 -9.546241030242095 -6.090044154417462 -44.62088578242101 0 0 0
1385 375 2 0.4238 -12.317312912398695 -3.3763860961077676 -44.13555666516427 0 0 0
1380 374 1 -0.8476 -13.409861500792168 -0.9057195747759318 -45.952952365793976 0 0 0
1381 374 2 0.4238 -14.248989051631398 -1.0615999620063734 -45.43183205205507 0 0 0
1243 328 2 0.4238 -10.172444396995001 -8.535110283663245 -44.330189685788 0 0 0
1432 391 2 0.4238 -9.416788697114638 -2.663994779275169 -42.315653271048376 0 0 0
1431 391 1 -0.8476 -8.757214864864146 -2.871018054365331 -43.0382214303192 0 0 0
1339 360 2 0.4238 -8.782854912890466 -4.685146627476297 -42.68931188231913 0 0 0
615 119 1 -0.8476 -8.90808591882103 -3.5537178495907735 -45.88521447881422 0 0 0
616 119 2 0.4238 -9.009549786158427 -3.4655533717719944 -44.8942896035205 0 0 0
617 119 2 0.4238 -7.968860064594989 -3.32969026112617 -46.145342205825585 0 0 0
524 88 2 0.4238 -5.549519807680842 -8.266001393643622 -46.196357275881695 0 0 0
570 104 1 -0.8476 -5.495623072749709 -6.334430157573131 -45.6639177274357 0 0 0
571 104 2 0.4238 -4.636500328226839 -5.917717806059451 -45.366833688922306 0 0 0
572 104 2 0.4238 -5.878117691070847 -5.805579438704026 -46.42155536120728 0 0 0
573 105 1 -0.8476 -3.189438632511319 -5.127160205314578 -44.700609591652515 0 0 0
574 105 2 0.4238 -2.732907781122917 -5.431917115001326 -43.864725145255306 0 0 0
575 105 2 0.4238 -2.6670727356074746 -4.380473872500372 -45.11242677213472 0 0 0
618 120 1 -0.8476 -6.329943299112095 -2.8773283476973224 -46.17516286816978 0 0 0
619 120 2 0.4238 -6.066845694694461 -2.7690184779934315 -45.216492631501076 0 0 0
620 120 2 0.4238 -5.9446767812533 -2.1276587485056635 -46.71327549789034 0 0 0
621 121 1 -0.8476 -1.8173608375919166 -2.946984931873361 -45.76073892561426 0 0 0
622 121 2 0.4238 -0.8776349209829967 -2.613559294271061 -45.83651851285928 0 0 0
623 121 2 0.4238 -2.3878200970846932 -2.494678696340487 -46.44630095968341 0 0 0
1292 344 2 0.4238 -6.27768149291615 -6.732888724453379 -44.20203668214019 0 0 0
2109 617 1 -0.8476 -5.910072621447022 -2.4181395187270525 -43.413504630565875 0 0 0
2110 617 2 0.4238 -5.83682800994996 -1.4682975416212802 -43.10947055757494 0 0 0
1392 378 1 -0.8476 -2.356653770091935 -2.0984635740370847 -43.23632919423344 0 0 0
1394 378 2 0.4238 -2.2206901234754146 -2.6012171348288353 -44.0899999839851 0 0 0
1388 376 2 0.4238 -7.952311913431022 -0.6985696195991845 -46.77042419605963 0 0 0
1290 344 1 -0.8476 -6.601995148927456 -7.11181162446205 -43.33529589334998 0 0 0
3550 1097 2 0.4238 -1.2203528917432147 -16.803148594973663 -35.30829411634559 0 0 0
11762 3834 2 0.4238 -5.890814078240915 -0.1533786278181232 -0.9834299057891976 0 0 0
1032 258 1 -0.8476 -20.573277873449467 -26.320724726749255 -43.00893794568605 0 0 0
2668 803 2 0.4238 -22.837765091536685 -19.711349691050405 -42.614409218609815 0 0 0
2667 803 1 -0.8476 -22.539317476385992 -18.835934402803016 -42.994642324012666 0 0 0
1901 547 2 0.4238 -23.90028153712254 -21.700976029072887 -41.5632182994439 0 0 0
1034 258 2 0.4238 -21.437019559581977 -26.811184303250066 -43.124696789556964 0 0 0
1946 562 2 0.4238 -25.926708202824077 -19.545467545668412 -40.20594496309663 0 0 0
1899 547 1 -0.8476 -23.20223188125069 -20.992348673884308 -41.66605522989384 0 0 0
1900 547 2 0.4238 -22.30789236317899 -21.42138150697013 -41.79289408776332 0 0 0
1849 530 2 0.4238 -22.925925822794714 -24.25921405764936 -41.903701749311374 0 0 0
1035 259 1 -0.8476 -20.605394684604597 -22.302294381774676 -40.92819214502068 0 0 0
1036 259 2 0.4238 -20.124270098242032 -22.645125899422567 -41.73502901954935 0 0 0
1037 259 2 0.4238 -21.064921094049765 -23.061128637352994 -40.466666323254 0 0 0
1848 530 1 -0.8476 -23.46232831438515 -24.398440920232556 -42.73610140369308 0 0 0
1850 530 2 0.4238 -24.393516382863247 -24.06337340570306 -42.592506053894226 0 0 0
2664 802 1 -0.8476 -19.40832216073103 -20.01383386862117 -40.572181156490764 0 0 0
2665 802 2 0.4238 -19.84185233681944 -20.902903099055084 -40.719176373179955 0 0 0
2616 786 1 -0.8476 -22.18016545405421 -24.63948559880314 -40.08543377145247 0 0 0
2617 786 2 0.4238 -21.6361219552624 -25.360849743673032 -39.65688903284668 0 0 0
2618 786 2 0.4238 -22.675415752535606 -24.13203265053647 -39.380296378861836 0 0 0
3387 1043 1 -0.8476 -25.356868269438213 -22.764490450044935 -41.46795082571632 0 0 0
2666 802 2 0.4238 -19.549504386403836 -19.437057917473744 -41.37679107666047 0 0 0
4923 1555 1 -0.8476 -22.645641299952846 -22.234006942771305 -37.66800902158904 0 0 0
4924 1555 2 0.4238 -22.06146466182734 -21.472762334514048 -37.94951348739651 0 0 0
4925 1555 2 0.4238 -23.51398818561344 -21.877856615371968 -37.32285492249298 0 0 0
1129 290 2 0.4238 -23.822436369424445 -19.70972101268536 -40.1822066880517 0 0 0
1128 290 1 -0.8476 -24.294845787853532 -19.619630824185553 -39.30544344911282 0 0 0
1130 290 2 0.4238 -23.78598962113287 -18.992685206921976 -38.715524014604064 0 0 0
1082 274 2 0.4238 -25.045488604737915 -20.78663370910969 -37.75504517279121 0 0 0
3483 1075 1 -0.8476 -22.973352375923536 -18.304766792113195 -36.916244443085226 0 0 0
3484 1075 2 0.4238 -23.033366171466508 -17.348634099563103 -36.62952265765547 0 0 0
2669 803 2 0.4238 -22.275622043391294 -18.221946899344193 -42.25067713623402 0 0 0
3430 1057 2 0.4238 -25.336391410347993 -22.851553165252465 -38.15727144171856 1 0 0
3429 1057 1 -0.8476 -25.514644926523626 -23.528411177440613 -38.87147660697169 1 0 0
3431 1057 2 0.4238 -24.926332262183003 -24.324644068047075 -38.730404252517324 1 0 0
1080 274 1 -0.8476 -25.339210067750827 -21.596773422400297 -37.24769727670072 0 0 0
1081 274 2 0.4238 -25.9192948941916 -21.318469689300446 -36.482158701439026 0 0 0
3485 1075 2 0.4238 -22.074036801348374 -18.47629791873776 -37.318499646340086 0 0 0
1033 258 2 0.4238 -20.170296393810954 -26.559353065191335 -42.12538632658826 0 0 0
1854 532 1 -0.8476 -20.24245703013404 -26.02740936891641 -38.96885361575061 0 0 0
1856 532 2 0.4238 -19.541212182731734 -26.27634585824204 -39.63690029984438 0 0 0
4256 1332 2 0.4238 -26.570743253339867 -16.761994340060475 -37.72292157880289 0 0 0
1804 515 2 0.4238 -26.9842436836857 -26.139906559323812 -41.70233481102433 0 0 0
4112 1284 2 0.4238 -21.926875591036016 -23.2725979811704 -36.25471867159071 0 0 0
3389 1043 2 0.4238 -25.47392469972505 -22.970611458863278 -40.49645096754494 0 0 0
10193 3311 2 0.4238 -25.774070013830347 -4.660836794216612 -16.75399689173029 1 0 0
1855 532 2 0.4238 -19.804164244776228 -25.73073124205651 -38.120395247419594 0 0 0
1086 276 1 -0.8476 -19.056703847842634 -17.714158135791564 -36.65991122064656 0 0 0
13076 4272 2 0.4238 -4.774192066520665 -3.463042015331703 2.3624602325082766 0 0 0
1087 276 2 0.4238 -19.474414634004958 -18.438832305557458 -36.11185551006661 0 0 0
4198 1313 2 0.4238 -25.628697367376194 -25.384100842626722 -36.65195810343205 1 0 0
4203 1315 1 -0.8476 -20.8430952719077 -19.943802831723694 -37.8607353559914 0 0 0
4205 1315 2 0.4238 -20.572411794562964 -20.576477835233433 -37.13516358616816 0 0 0
4204 1315 2 0.4238 -20.077475281957696 -19.8113520367115 -38.49024572862289 0 0 0
4062 1268 1 -0.8476 -19.84461065632799 -21.67207795555259 -36.03170191701407 0 1 0
4110 1284 1 -0.8476 -21.789090876436475 -23.855940008063342 -35.454264129102256 0 0 0
4111 1284 2 0.4238 -22.659280587157546 -23.9777504800953 -34.9768417645996 0 0 0
10721 3487 2 0.4238 -26.908315042440268 -26.53664628284492 -10.370228155347087 1 0 0
4197 1313 1 -0.8476 -26.406675061294084 -25.32220987262029 -36.02672195609114 1 0 0
1044 262 1 -0.8476 -11.7894873314978 -25.800052476789805 -42.856874878265735 0 0 0
1857 533 1 -0.8476 -17.419070758826642 -22.12783515057224 -42.380797555541875 0 0 0
1859 533 2 0.4238 -17.86162199542406 -22.49551356138614 -43.198698043916735 0 0 0
1045 262 2 0.4238 -10.798431664543637 -25.768477465690815 -42.72721349100971 0 0 0
1188 310 1 -0.8476 -13.45393834386923 -21.519706734035516 -41.22291548434686 0 0 0
1189 310 2 0.4238 -12.54807221436818 -21.4804474153024 -40.80117445514116 0 0 0
8878 2873 2 0.4238 -15.052778295576223 -1.5015912446882178 -13.220885415407004 0 0 0
1903 548 2 0.4238 -18.415753879560146 -19.422377739414724 -39.42073594569818 0 0 0
6074 1938 2 0.4238 -25.19695114598798 -1.5617080181788565 -29.842466022101423 0 0 0
1041 261 1 -0.8476 -15.706073690756424 -26.31579334888501 -42.63536889739596 0 0 0
1042 261 2 0.4238 -15.46768426812837 -25.361462569267527 -42.815433701870134 0 0 0
1862 534 2 0.4238 -9.530193431071773 -21.445572416410283 -43.07780415730728 0 0 0