# System

13763 atoms
9330 bonds
5113 angles
1193 dihedrals
147 impropers

15 atom types
8 bond types
14 angle types
15 dihedral types
1 improper types
extra bond per atom 2
extra angle per atom 1
extra special per atom 2
-27.2         27.2 xlo xhi
-27.2         27.2 ylo yhi
-50  50 zlo zhi

Atoms

1	1	3	-0.115	0	-9.1962	-23.802	
2	1	3	-0.115	0	-9.9036	-22.5767	
3	1	3	0	0	-9.1962	-21.3515	
4	1	3	-0.115	0	-9.9036	-20.1262	
5	1	3	0	0	-9.1962	-18.901	
6	1	3	-0.115	0	-9.9036	-17.6757	
7	1	3	0	0	-9.1962	-16.4505	
8	1	3	-0.115	0	-9.9036	-15.2252	
9	1	3	0	0	-9.1962	-14	
10	1	13	0.15	0	-9.9036	-12.7747	
11	1	3	0	0	-9.1962	-11.5495	
12	1	3	-0.115	0	-9.9036	-10.3242	
13	1	3	0	0	-9.1962	-9.099	
14	1	13	0.15	0	-9.9036	-7.8737	
15	1	3	0	0	-9.1962	-6.6485	
16	1	3	-0.115	0	-9.9036	-5.4232	
17	1	3	-0.115	0	-9.1962	-4.198	
18	1	13	0.15	0	-7.7814	-23.802	
19	1	3	0	0	-7.074	-22.5767	
20	1	3	0	0	-7.7814	-21.3515	
21	1	3	0	0	-7.074	-20.1262	
22	1	3	0	0	-7.7814	-18.901	
23	1	3	0	0	-7.074	-17.6757	
24	1	3	0	0	-7.7814	-16.4505	
25	1	3	0	0	-7.074	-15.2252	
26	1	5	0.265	0	-7.7814	-14	
27	1	5	0.265	0	-7.074	-12.7747	
28	1	3	0	0	-7.7814	-11.5495	
29	1	3	0	0	-7.074	-10.3242	
30	1	3	0	0	-7.7814	-9.099	
31	1	3	0	0	-7.074	-7.8737	
32	1	3	0	0	-7.7814	-6.6485	
33	1	3	0	0	-7.074	-5.4232	
34	1	3	-0.115	0	-7.7814	-4.198	
35	1	13	0.15	0	-4.9518	-23.802	
36	1	5	0.265	0	-5.6592	-22.5767	
37	1	5	0.265	0	-4.9518	-21.3515	
38	1	5	0.265	0	-5.6592	-20.1262	
39	1	5	0.265	0	-4.9518	-18.901	
40	1	3	0	0	-5.6592	-17.6757	
41	1	5	0.265	0	-4.9518	-16.4505	
42	1	3	0	0	-5.6592	-15.2252	
43	1	5	0.265	0	-4.9518	-14	
44	1	5	0.265	0	-5.6592	-12.7747	
45	1	3	0	0	-4.9518	-11.5495	
46	1	3	0	0	-5.6592	-10.3242	
47	1	3	0	0	-4.9518	-9.099	
48	1	3	0	0	-5.6592	-7.8737	
49	1	3	0	0	-4.9518	-6.6485	
50	1	3	0	0	-5.6592	-5.4232	
51	1	13	0.15	0	-4.9518	-4.198	
52	1	3	-0.115	0	-3.537	-23.802	
53	1	3	0	0	-2.8296	-22.5767	
54	1	3	0	0	-3.537	-21.3515	
55	1	3	0	0	-2.8296	-20.1262	
56	1	5	0.265	0	-3.537	-18.901	
57	1	5	0.265	0	-2.8296	-17.6757	
58	1	5	0.265	0	-3.537	-16.4505	
59	1	5	0.265	0	-2.8296	-15.2252	
60	1	3	0	0	-3.537	-14	
61	1	3	0	0	-2.8296	-12.7747	
62	1	3	0	0	-3.537	-11.5495	
63	1	3	0	0	-2.8296	-10.3242	
64	1	3	0	0	-3.537	-9.099	
65	1	3	0	0	-2.8296	-7.8737	
66	1	3	0	0	-3.537	-6.6485	
67	1	3	0	0	-2.8296	-5.4232	
68	1	3	-0.115	0	-3.537	-4.198	
69	1	3	-0.115	0	-0.7074	-23.802	
70	1	3	0	0	-1.4148	-22.5767	
71	1	3	0	0	-0.7074	-21.3515	
72	1	5	0.265	0	-1.4148	-20.1262	
73	1	5	0.265	0	-0.7074	-18.901	
74	1	3	0	0	-1.4148	-17.6757	
75	1	5	0.265	0	-0.7074	-16.4505	
76	1	3	0	0	-1.4148	-15.2252	
77	1	3	0	0	-0.7074	-14	
78	1	3	0	0	-1.4148	-12.7747	
79	1	3	0	0	-0.7074	-11.5495	
80	1	3	0	0	-1.4148	-10.3242	
81	1	3	0	0	-0.7074	-9.099	
82	1	3	0	0	-1.4148	-7.8737	
83	1	3	0	0	-0.7074	-6.6485	
84	1	3	0	0	-1.4148	-5.4232	
85	1	13	0.15	0	-0.7074	-4.198	
86	1	3	-0.115	0	0.7074	-23.802	
87	1	3	0	0	1.4148	-22.5767	
88	1	5	0.265	0	0.7074	-21.3515	
89	1	5	0.265	0	1.4148	-20.1262	
90	1	3	0	0	0.7074	-18.901	
91	1	3	0	0	1.4148	-17.6757	
92	1	5	0.265	0	0.7074	-16.4505	
93	1	3	0	0	1.4148	-15.2252	
94	1	3	0	0	0.7074	-14	
95	1	3	0	0	1.4148	-12.7747	
96	1	3	0	0	0.7074	-11.5495	
97	1	3	0	0	1.4148	-10.3242	
98	1	3	0	0	0.7074	-9.099	
99	1	3	0	0	1.4148	-7.8737	
100	1	3	0	0	0.7074	-6.6485	
101	1	3	0	0	1.4148	-5.4232	
102	1	3	-0.115	0	0.7074	-4.198	
103	1	13	0.15	0	3.537	-23.802	
104	1	3	0	0	2.8296	-22.5767	
105	1	3	0	0	3.537	-21.3515	
106	1	3	0	0	2.8296	-20.1262	
107	1	5	0.265	0	3.537	-18.901	
108	1	5	0.265	0	2.8296	-17.6757	
109	1	3	0	0	3.537	-16.4505	
110	1	3	0	0	2.8296	-15.2252	
111	1	3	0	0	3.537	-14	
112	1	3	0	0	2.8296	-12.7747	
113	1	3	0	0	3.537	-11.5495	
114	1	3	0	0	2.8296	-10.3242	
115	1	3	0	0	3.537	-9.099	
116	1	3	0	0	2.8296	-7.8737	
117	1	3	0	0	3.537	-6.6485	
118	1	3	0	0	2.8296	-5.4232	
119	1	3	-0.115	0	3.537	-4.198	
120	1	13	0.15	0	4.9518	-23.802	
121	1	3	0	0	5.6592	-22.5767	
122	1	3	0	0	4.9518	-21.3515	
123	1	3	0	0	5.6592	-20.1262	
124	1	3	0	0	4.9518	-18.901	
125	1	5	0.265	0	5.6592	-17.6757	
126	1	5	0.265	0	4.9518	-16.4505	
127	1	3	0	0	5.6592	-15.2252	
128	1	3	0	0	4.9518	-14	
129	1	3	0	0	5.6592	-12.7747	
130	1	3	0	0	4.9518	-11.5495	
131	1	3	0	0	5.6592	-10.3242	
132	1	3	0	0	4.9518	-9.099	
133	1	3	0	0	5.6592	-7.8737	
134	1	3	0	0	4.9518	-6.6485	
135	1	3	0	0	5.6592	-5.4232	
136	1	3	-0.115	0	4.9518	-4.198	
137	1	3	-0.115	0	7.7814	-23.802	
138	1	3	0	0	7.074	-22.5767	
139	1	3	0	0	7.7814	-21.3515	
140	1	3	0	0	7.074	-20.1262	
141	1	3	0	0	7.7814	-18.901	
142	1	3	0	0	7.074	-17.6757	
143	1	3	0	0	7.7814	-16.4505	
144	1	3	0	0	7.074	-15.2252	
145	1	3	0	0	7.7814	-14	
146	1	3	0	0	7.074	-12.7747	
147	1	3	0	0	7.7814	-11.5495	
148	1	3	0	0	7.074	-10.3242	
149	1	3	0	0	7.7814	-9.099	
150	1	3	0	0	7.074	-7.8737	
151	1	3	0	0	7.7814	-6.6485	
152	1	3	0	0	7.074	-5.4232	
153	1	3	-0.115	0	7.7814	-4.198	
154	1	3	-0.115	0	9.1962	-23.802	
155	1	3	-0.115	0	9.9036	-22.5767	
156	1	3	0	0	9.1962	-21.3515	
157	1	3	-0.115	0	9.9036	-20.1262	
158	1	3	0	0	9.1962	-18.901	
159	1	3	-0.115	0	9.9036	-17.6757	
160	1	3	0	0	9.1962	-16.4505	
161	1	3	-0.115	0	9.9036	-15.2252	
162	1	3	0	0	9.1962	-14	
163	1	3	-0.115	0	9.9036	-12.7747	
164	1	3	0	0	9.1962	-11.5495	
165	1	13	0.15	0	9.9036	-10.3242	
166	1	3	0	0	9.1962	-9.099	
167	1	13	0.15	0	9.9036	-7.8737	
168	1	3	0	0	9.1962	-6.6485	
169	1	3	-0.115	0	9.9036	-5.4232	
170	1	13	0.15	0	9.1962	-4.198	
171	1	4	0.115	0	-10.9806	-22.5767	
172	1	4	0.115	0	-10.9806	-20.1262	
173	1	4	0.115	0	-10.9806	-17.6757	
174	1	4	0.115	0	-10.9806	-15.2252	
175	1	9	-0.585	0	-11.3036	-12.7747	
176	1	4	0.115	0	-10.9806	-10.3242	
177	1	9	-0.585	0	-11.3036	-7.8737	
178	1	4	0.115	0	-10.9806	-5.4232	
179	1	4	0.115	0	10.9806	-22.5767	
180	1	4	0.115	0	10.9806	-20.1262	
181	1	4	0.115	0	10.9806	-17.6757	
182	1	4	0.115	0	10.9806	-15.2252	
183	1	4	0.115	0	10.9806	-12.7747	
184	1	9	-0.585	0	11.3036	-10.3242	
185	1	9	-0.585	0	11.3036	-7.8737	
186	1	4	0.115	0	10.9806	-5.4232	
187	1	4	0.115	0	-9.7347	-24.7347	
188	1	9	-0.585	0	-7.0814	-25.0144	
189	1	4	0.115	0	-9.7347	-3.2652	
190	1	4	0.115	0	-7.2429	-3.2652	
191	1	9	-0.585	0	-5.6518	-25.0144	
192	1	4	0.115	0	-2.9985	-24.7347	
193	1	9	-0.585	0	-5.6518	-2.9855	
194	1	4	0.115	0	-2.9985	-3.2652	
195	1	4	0.115	0	-1.2459	-24.7347	
196	1	4	0.115	0	1.2459	-24.7347	
197	1	9	-0.585	0	-1.4074	-2.9855	
198	1	4	0.115	0	1.2459	-3.2652	
199	1	9	-0.585	0	2.837	-25.0144	
200	1	9	-0.585	0	5.6518	-25.0144	
201	1	4	0.115	0	2.9985	-3.2652	
202	1	4	0.115	0	5.4903	-3.2652	
203	1	4	0.115	0	7.2429	-24.7347	
204	1	4	0.115	0	9.7347	-24.7347	
205	1	4	0.115	0	7.2429	-3.2652	
206	1	9	-0.585	0	9.8962	-2.9855	
207	1	7	0.435	-0.7	-12.0036	-12.7747	
208	1	7	0.435	-0.7	-12.0036	-7.8737	
209	1	7	0.435	-0.7	12.0036	-10.3242	
210	1	7	0.435	0.7	12.0036	-7.8737	
211	1	7	0.435	-0.7	-6.7314	-25.6207	
212	1	7	0.435	-0.7	-6.0018	-25.6207	
213	1	7	0.435	-0.7	-6.0018	-2.3793	
214	1	7	0.435	-0.7	-1.7574	-2.3793	
215	1	7	0.435	0.7	2.487	-25.6207	
216	1	7	0.435	0.7	6.0018	-25.6207	
217	1	7	0.435	0.7	10.2462	-2.3793	
218	1	6	-0.683	1.4	-4.9518	-21.3515	
219	1	7	0.418	2.4	-4.9518	-21.3515	
220	1	6	-0.683	-1.4	-5.6592	-22.5767	
221	1	7	0.418	-2.4	-5.6592	-22.5767	
222	1	6	-0.683	1.4	-5.6592	-20.1262	
223	1	7	0.418	2.4	-5.6592	-20.1262	
224	1	6	-0.683	-1.4	-1.4148	-20.1262	
225	1	7	0.418	-2.4	-1.4148	-20.1262	
226	1	6	-0.683	-1.4	-4.9518	-18.901	
227	1	7	0.418	-2.4	-4.9518	-18.901	
228	1	6	-0.683	1.4	-2.8296	-17.6757	
229	1	7	0.418	2.4	-2.8296	-17.6757	
230	1	6	-0.683	1.4	0.7074	-21.3515	
231	1	7	0.418	2.4	0.7074	-21.3515	
232	1	6	-0.683	-1.4	-0.7074	-18.901	
233	1	7	0.418	-2.4	-0.7074	-18.901	
234	1	6	-0.683	1.4	0.7074	-16.4505	
235	1	7	0.418	2.4	0.7074	-16.4505	
236	1	6	-0.683	-1.4	1.4148	-20.1262	
237	1	7	0.418	-2.4	1.4148	-20.1262	
238	1	6	-0.683	1.4	-0.7074	-16.4505	
239	1	7	0.418	2.4	-0.7074	-16.4505	
240	1	6	-0.683	-1.4	-3.537	-16.4505	
241	1	7	0.418	-2.4	-3.537	-16.4505	
242	1	6	-0.683	1.4	-4.9518	-16.4505	
243	1	7	0.418	2.4	-4.9518	-16.4505	
244	1	6	-0.683	-1.4	-4.9518	-14	
245	1	7	0.418	-2.4	-4.9518	-14	
246	1	6	-0.683	-1.4	-3.537	-18.901	
247	1	7	0.418	-2.4	-3.537	-18.901	
248	1	6	-0.683	-1.4	2.8296	-17.6757	
249	1	7	0.418	-2.4	2.8296	-17.6757	
250	1	6	-0.683	1.4	-7.7814	-14	
251	1	7	0.418	2.4	-7.7814	-14	
252	1	6	-0.683	1.4	3.537	-18.901	
253	1	7	0.418	2.4	3.537	-18.901	
254	1	6	-0.683	1.4	4.9518	-16.4505	
255	1	7	0.418	2.4	4.9518	-16.4505	
256	1	6	-0.683	-1.4	-7.074	-12.7747	
257	1	7	0.418	-2.4	-7.074	-12.7747	
258	1	6	-0.683	1.4	5.6592	-17.6757	
259	1	7	0.418	2.4	5.6592	-17.6757	
260	1	6	-0.683	1.4	-5.6592	-12.7747	
261	1	7	0.418	2.4	-5.6592	-12.7747	
262	1	6	-0.683	-1.4	-2.8296	-15.2252	
263	1	7	0.418	-2.4	-2.8296	-15.2252	
264	2	1	-0.8476	-26.3631	-26.3731	-45.9891	
265	2	2	0.4238	-25.3631	-26.3731	-45.9891	
266	2	2	0.4238	-26.6964	-25.4303	-45.9891	
267	3	1	-0.8476	-22.9458	-26.3134	-46.0332	
268	3	2	0.4238	-21.9458	-26.3134	-46.0332	
269	3	2	0.4238	-23.2791	-25.3706	-46.0332	
270	4	1	-0.8476	-19.51	-26.3577	-45.9955	
271	4	2	0.4238	-18.51	-26.3577	-45.9955	
272	4	2	0.4238	-19.8433	-25.4149	-45.9955	
273	5	1	-0.8476	-16.1166	-26.3241	-46.0428	
274	5	2	0.4238	-15.1166	-26.3241	-46.0428	
275	5	2	0.4238	-16.4499	-25.3813	-46.0428	
276	6	1	-0.8476	-12.7285	-26.3015	-45.9788	
277	6	2	0.4238	-11.7285	-26.3015	-45.9788	
278	6	2	0.4238	-13.0618	-25.3587	-45.9788	
279	7	1	-0.8476	-9.3185	-26.3032	-46.0274	
280	7	2	0.4238	-8.3185	-26.3032	-46.0274	
281	7	2	0.4238	-9.6518	-25.3604	-46.0274	
282	8	1	-0.8476	-5.9636	-26.3802	-45.9967	
283	8	2	0.4238	-4.9636	-26.3802	-45.9967	
284	8	2	0.4238	-6.2969	-25.4374	-45.9967	
285	9	1	-0.8476	-2.5294	-26.3211	-45.9641	
286	9	2	0.4238	-1.5294	-26.3211	-45.9641	
287	9	2	0.4238	-2.8627	-25.3783	-45.9641	
288	10	1	-0.8476	0.84472	-26.3077	-46.0455	
289	10	2	0.4238	1.8447	-26.3077	-46.0455	
290	10	2	0.4238	0.51141	-25.3649	-46.0455	
291	11	1	-0.8476	4.2788	-26.3292	-46.0439	
292	11	2	0.4238	5.2788	-26.3292	-46.0439	
293	11	2	0.4238	3.9454	-25.3864	-46.0439	
294	12	1	-0.8476	7.6816	-26.3737	-46.0455	
295	12	2	0.4238	8.6816	-26.3737	-46.0455	
296	12	2	0.4238	7.3483	-25.4309	-46.0455	
297	13	1	-0.8476	11.0695	-26.3705	-45.9656	
298	13	2	0.4238	12.0695	-26.3705	-45.9656	
299	13	2	0.4238	10.7362	-25.4277	-45.9656	
300	14	1	-0.8476	14.4686	-26.3317	-45.9684	
301	14	2	0.4238	15.4686	-26.3317	-45.9684	
302	14	2	0.4238	14.1353	-25.3889	-45.9684	
303	15	1	-0.8476	17.8642	-26.3475	-45.9554	
304	15	2	0.4238	18.8642	-26.3475	-45.9554	
305	15	2	0.4238	17.5309	-25.4047	-45.9554	
306	16	1	-0.8476	21.2039	-26.3252	-46.0007	
307	16	2	0.4238	22.2039	-26.3252	-46.0007	
308	16	2	0.4238	20.8706	-25.3824	-46.0007	
309	17	1	-0.8476	24.6491	-26.3678	-45.9859	
310	17	2	0.4238	25.6491	-26.3678	-45.9859	
311	17	2	0.4238	24.3158	-25.425	-45.9859	
312	18	1	-0.8476	-26.3416	-22.9135	-46.002	
313	18	2	0.4238	-25.3416	-22.9135	-46.002	
314	18	2	0.4238	-26.6749	-21.9707	-46.002	
315	19	1	-0.8476	-22.9271	-22.9017	-45.9757	
316	19	2	0.4238	-21.9271	-22.9017	-45.9757	
317	19	2	0.4238	-23.2604	-21.9589	-45.9757	
318	20	1	-0.8476	-19.5667	-22.9172	-46.0358	
319	20	2	0.4238	-18.5667	-22.9172	-46.0358	
320	20	2	0.4238	-19.9	-21.9744	-46.0358	
321	21	1	-0.8476	-16.1073	-22.9491	-45.984	
322	21	2	0.4238	-15.1073	-22.9491	-45.984	
323	21	2	0.4238	-16.4406	-22.0063	-45.984	
324	22	1	-0.8476	-12.7055	-22.9196	-46.0206	
325	22	2	0.4238	-11.7055	-22.9196	-46.0206	
326	22	2	0.4238	-13.0388	-21.9768	-46.0206	
327	23	1	-0.8476	-9.3457	-22.941	-45.9723	
328	23	2	0.4238	-8.3457	-22.941	-45.9723	
329	23	2	0.4238	-9.679	-21.9982	-45.9723	
330	24	1	-0.8476	-5.945	-22.9111	-46.0213	
331	24	2	0.4238	-4.945	-22.9111	-46.0213	
332	24	2	0.4238	-6.2783	-21.9683	-46.0213	
333	25	1	-0.8476	-2.5243	-22.9595	-46.0268	
334	25	2	0.4238	-1.5243	-22.9595	-46.0268	
335	25	2	0.4238	-2.8576	-22.0167	-46.0268	
336	26	1	-0.8476	0.87157	-22.9031	-46.0431	
337	26	2	0.4238	1.8716	-22.9031	-46.0431	
338	26	2	0.4238	0.53826	-21.9603	-46.0431	
339	27	1	-0.8476	4.2904	-22.9293	-45.9742	
340	27	2	0.4238	5.2904	-22.9293	-45.9742	
341	27	2	0.4238	3.9571	-21.9865	-45.9742	
342	28	1	-0.8476	7.6172	-22.9746	-46.0052	
343	28	2	0.4238	8.6172	-22.9746	-46.0052	
344	28	2	0.4238	7.2839	-22.0318	-46.0052	
345	29	1	-0.8476	11.085	-22.9178	-45.9848	
346	29	2	0.4238	12.085	-22.9178	-45.9848	
347	29	2	0.4238	10.7516	-21.975	-45.9848	
348	30	1	-0.8476	14.4936	-22.9758	-46.0085	
349	30	2	0.4238	15.4936	-22.9758	-46.0085	
350	30	2	0.4238	14.1603	-22.033	-46.0085	
351	31	1	-0.8476	17.8752	-22.9719	-45.9858	
352	31	2	0.4238	18.8752	-22.9719	-45.9858	
353	31	2	0.4238	17.5418	-22.0291	-45.9858	
354	32	1	-0.8476	21.2223	-22.9754	-46.0169	
355	32	2	0.4238	22.2223	-22.9754	-46.0169	
356	32	2	0.4238	20.889	-22.0326	-46.0169	
357	33	1	-0.8476	24.6218	-22.9922	-45.9514	
358	33	2	0.4238	25.6218	-22.9922	-45.9514	
359	33	2	0.4238	24.2885	-22.0494	-45.9514	
360	34	1	-0.8476	-26.3123	-19.503	-45.9737	
361	34	2	0.4238	-25.3123	-19.503	-45.9737	
362	34	2	0.4238	-26.6456	-18.5602	-45.9737	
363	35	1	-0.8476	-22.9302	-19.5924	-46.0307	
364	35	2	0.4238	-21.9302	-19.5924	-46.0307	
365	35	2	0.4238	-23.2635	-18.6496	-46.0307	
366	36	1	-0.8476	-19.5254	-19.5625	-45.9787	
367	36	2	0.4238	-18.5254	-19.5625	-45.9787	
368	36	2	0.4238	-19.8588	-18.6197	-45.9787	
369	37	1	-0.8476	-16.1782	-19.5904	-46.005	
370	37	2	0.4238	-15.1782	-19.5904	-46.005	
371	37	2	0.4238	-16.5115	-18.6476	-46.005	
372	38	1	-0.8476	-12.7922	-19.5127	-45.953	
373	38	2	0.4238	-11.7922	-19.5127	-45.953	
374	38	2	0.4238	-13.1255	-18.5699	-45.953	
375	39	1	-0.8476	-9.3771	-19.5173	-45.9536	
376	39	2	0.4238	-8.3771	-19.5173	-45.9536	
377	39	2	0.4238	-9.7104	-18.5745	-45.9536	
378	40	1	-0.8476	-5.9214	-19.5095	-45.9615	
379	40	2	0.4238	-4.9214	-19.5095	-45.9615	
380	40	2	0.4238	-6.2547	-18.5667	-45.9615	
381	41	1	-0.8476	-2.5696	-19.5521	-46.0295	
382	41	2	0.4238	-1.5696	-19.5521	-46.0295	
383	41	2	0.4238	-2.9029	-18.6093	-46.0295	
384	42	1	-0.8476	0.81576	-19.5595	-45.9917	
385	42	2	0.4238	1.8158	-19.5595	-45.9917	
386	42	2	0.4238	0.48245	-18.6167	-45.9917	
387	43	1	-0.8476	4.2376	-19.5957	-45.9746	
388	43	2	0.4238	5.2376	-19.5957	-45.9746	
389	43	2	0.4238	3.9043	-18.6529	-45.9746	
390	44	1	-0.8476	7.6736	-19.5412	-46.0076	
391	44	2	0.4238	8.6736	-19.5412	-46.0076	
392	44	2	0.4238	7.3402	-18.5984	-46.0076	
393	45	1	-0.8476	11.0062	-19.5496	-45.9844	
394	45	2	0.4238	12.0062	-19.5496	-45.9844	
395	45	2	0.4238	10.6729	-18.6068	-45.9844	
396	46	1	-0.8476	14.4484	-19.5244	-46.0407	
397	46	2	0.4238	15.4484	-19.5244	-46.0407	
398	46	2	0.4238	14.1151	-18.5816	-46.0407	
399	47	1	-0.8476	17.8089	-19.5766	-45.977	
400	47	2	0.4238	18.8089	-19.5766	-45.977	
401	47	2	0.4238	17.4756	-18.6338	-45.977	
402	48	1	-0.8476	21.2529	-19.5997	-45.9939	
403	48	2	0.4238	22.2529	-19.5997	-45.9939	
404	48	2	0.4238	20.9196	-18.6569	-45.9939	
405	49	1	-0.8476	24.6573	-19.5469	-45.9911	
406	49	2	0.4238	25.6573	-19.5469	-45.9911	
407	49	2	0.4238	24.324	-18.6041	-45.9911	
408	50	1	-0.8476	-26.3869	-16.1996	-45.9719	
409	50	2	0.4238	-25.3869	-16.1996	-45.9719	
410	50	2	0.4238	-26.7202	-15.2568	-45.9719	
411	51	1	-0.8476	-22.999	-16.1855	-45.9548	
412	51	2	0.4238	-21.999	-16.1855	-45.9548	
413	51	2	0.4238	-23.3323	-15.2427	-45.9548	
414	52	1	-0.8476	-19.5375	-16.1972	-46.0445	
415	52	2	0.4238	-18.5375	-16.1972	-46.0445	
416	52	2	0.4238	-19.8708	-15.2544	-46.0445	
417	53	1	-0.8476	-16.1489	-16.1402	-46.0218	
418	53	2	0.4238	-15.1489	-16.1402	-46.0218	
419	53	2	0.4238	-16.4823	-15.1974	-46.0218	
420	54	1	-0.8476	-12.7682	-16.1217	-45.9738	
421	54	2	0.4238	-11.7682	-16.1217	-45.9738	
422	54	2	0.4238	-13.1015	-15.1789	-45.9738	
423	55	1	-0.8476	-9.3368	-16.1396	-46.0005	
424	55	2	0.4238	-8.3368	-16.1396	-46.0005	
425	55	2	0.4238	-9.6702	-15.1968	-46.0005	
426	56	1	-0.8476	-5.9686	-16.1239	-45.9714	
427	56	2	0.4238	-4.9686	-16.1239	-45.9714	
428	56	2	0.4238	-6.3019	-15.1811	-45.9714	
429	57	1	-0.8476	-2.5788	-16.1095	-46.0174	
430	57	2	0.4238	-1.5788	-16.1095	-46.0174	
431	57	2	0.4238	-2.9121	-15.1667	-46.0174	
432	58	1	-0.8476	0.85154	-16.1682	-45.9514	
433	58	2	0.4238	1.8515	-16.1682	-45.9514	
434	58	2	0.4238	0.51823	-15.2254	-45.9514	
435	59	1	-0.8476	4.2835	-16.1984	-46.0362	
436	59	2	0.4238	5.2835	-16.1984	-46.0362	
437	59	2	0.4238	3.9502	-15.2556	-46.0362	
438	60	1	-0.8476	7.6781	-16.1747	-46.0369	
439	60	2	0.4238	8.6781	-16.1747	-46.0369	
440	60	2	0.4238	7.3448	-15.2319	-46.0369	
441	61	1	-0.8476	11.0728	-16.1397	-46.0367	
442	61	2	0.4238	12.0728	-16.1397	-46.0367	
443	61	2	0.4238	10.7395	-15.1969	-46.0367	
444	62	1	-0.8476	14.4334	-16.105	-46.0499	
445	62	2	0.4238	15.4334	-16.105	-46.0499	
446	62	2	0.4238	14.1001	-15.1622	-46.0499	
447	63	1	-0.8476	17.8744	-16.1968	-45.9802	
448	63	2	0.4238	18.8744	-16.1968	-45.9802	
449	63	2	0.4238	17.5411	-15.254	-45.9802	
450	64	1	-0.8476	21.2707	-16.1464	-45.9728	
451	64	2	0.4238	22.2707	-16.1464	-45.9728	
452	64	2	0.4238	20.9374	-15.2036	-45.9728	
453	65	1	-0.8476	24.6217	-16.1571	-45.9688	
454	65	2	0.4238	25.6217	-16.1571	-45.9688	
455	65	2	0.4238	24.2884	-15.2143	-45.9688	
456	66	1	-0.8476	-26.3718	-12.7044	-46.0216	
457	66	2	0.4238	-25.3718	-12.7044	-46.0216	
458	66	2	0.4238	-26.7051	-11.7616	-46.0216	
459	67	1	-0.8476	-22.966	-12.7379	-45.9649	
460	67	2	0.4238	-21.966	-12.7379	-45.9649	
461	67	2	0.4238	-23.2993	-11.7951	-45.9649	
462	68	1	-0.8476	-19.5678	-12.7685	-46.0362	
463	68	2	0.4238	-18.5678	-12.7685	-46.0362	
464	68	2	0.4238	-19.9011	-11.8257	-46.0362	
465	69	1	-0.8476	-16.1325	-12.7905	-46.0017	
466	69	2	0.4238	-15.1325	-12.7905	-46.0017	
467	69	2	0.4238	-16.4658	-11.8477	-46.0017	
468	70	1	-0.8476	-12.7756	-12.7309	-45.9711	
469	70	2	0.4238	-11.7756	-12.7309	-45.9711	
470	70	2	0.4238	-13.1089	-11.7881	-45.9711	
471	71	1	-0.8476	-9.3435	-12.79	-45.9649	
472	71	2	0.4238	-8.3435	-12.79	-45.9649	
473	71	2	0.4238	-9.6768	-11.8472	-45.9649	
474	72	1	-0.8476	-5.979	-12.7567	-45.961	
475	72	2	0.4238	-4.979	-12.7567	-45.961	
476	72	2	0.4238	-6.3123	-11.8139	-45.961	
477	73	1	-0.8476	-2.5989	-12.7387	-46.0433	
478	73	2	0.4238	-1.5989	-12.7387	-46.0433	
479	73	2	0.4238	-2.9322	-11.7959	-46.0433	
480	74	1	-0.8476	0.86642	-12.7764	-45.9645	
481	74	2	0.4238	1.8664	-12.7764	-45.9645	
482	74	2	0.4238	0.53311	-11.8336	-45.9645	
483	75	1	-0.8476	4.2744	-12.7995	-45.9802	
484	75	2	0.4238	5.2744	-12.7995	-45.9802	
485	75	2	0.4238	3.9411	-11.8567	-45.9802	
486	76	1	-0.8476	7.6996	-12.7303	-45.997	
487	76	2	0.4238	8.6996	-12.7303	-45.997	
488	76	2	0.4238	7.3663	-11.7875	-45.997	
489	77	1	-0.8476	11.0424	-12.7865	-45.9822	
490	77	2	0.4238	12.0424	-12.7865	-45.9822	
491	77	2	0.4238	10.7091	-11.8437	-45.9822	
492	78	1	-0.8476	14.4112	-12.778	-46.014	
493	78	2	0.4238	15.4112	-12.778	-46.014	
494	78	2	0.4238	14.0779	-11.8352	-46.014	
495	79	1	-0.8476	17.8854	-12.732	-46.0031	
496	79	2	0.4238	18.8854	-12.732	-46.0031	
497	79	2	0.4238	17.552	-11.7892	-46.0031	
498	80	1	-0.8476	21.243	-12.7992	-46.0143	
499	80	2	0.4238	22.243	-12.7992	-46.0143	
500	80	2	0.4238	20.9097	-11.8564	-46.0143	
501	81	1	-0.8476	24.663	-12.7349	-45.9504	
502	81	2	0.4238	25.663	-12.7349	-45.9504	
503	81	2	0.4238	24.3297	-11.7921	-45.9504	
504	82	1	-0.8476	-26.3668	-9.3871	-45.9812	
505	82	2	0.4238	-25.3668	-9.3871	-45.9812	
506	82	2	0.4238	-26.7001	-8.4443	-45.9812	
507	83	1	-0.8476	-22.9851	-9.3102	-46.0432	
508	83	2	0.4238	-21.9851	-9.3102	-46.0432	
509	83	2	0.4238	-23.3184	-8.3674	-46.0432	
510	84	1	-0.8476	-19.5296	-9.352	-46.0206	
511	84	2	0.4238	-18.5296	-9.352	-46.0206	
512	84	2	0.4238	-19.8629	-8.4092	-46.0206	
513	85	1	-0.8476	-16.1329	-9.3961	-45.9536	
514	85	2	0.4238	-15.1329	-9.3961	-45.9536	
515	85	2	0.4238	-16.4662	-8.4533	-45.9536	
516	86	1	-0.8476	-12.7381	-9.3126	-45.9904	
517	86	2	0.4238	-11.7381	-9.3126	-45.9904	
518	86	2	0.4238	-13.0714	-8.3698	-45.9904	
519	87	1	-0.8476	-9.3846	-9.3115	-45.9932	
520	87	2	0.4238	-8.3846	-9.3115	-45.9932	
521	87	2	0.4238	-9.7179	-8.3687	-45.9932	
522	88	1	-0.8476	-5.9427	-9.3963	-45.9836	
523	88	2	0.4238	-4.9427	-9.3963	-45.9836	
524	88	2	0.4238	-6.276	-8.4535	-45.9836	
525	89	1	-0.8476	-2.5907	-9.316	-46.0144	
526	89	2	0.4238	-1.5907	-9.316	-46.0144	
527	89	2	0.4238	-2.924	-8.3732	-46.0144	
528	90	1	-0.8476	0.85223	-9.3903	-46.0416	
529	90	2	0.4238	1.8522	-9.3903	-46.0416	
530	90	2	0.4238	0.51892	-8.4475	-46.0416	
531	91	1	-0.8476	4.2081	-9.3599	-45.9813	
532	91	2	0.4238	5.2081	-9.3599	-45.9813	
533	91	2	0.4238	3.8748	-8.4171	-45.9813	
534	92	1	-0.8476	7.6409	-9.3938	-46.0244	
535	92	2	0.4238	8.6409	-9.3938	-46.0244	
536	92	2	0.4238	7.3076	-8.451	-46.0244	
537	93	1	-0.8476	11.087	-9.33	-45.9593	
538	93	2	0.4238	12.087	-9.33	-45.9593	
539	93	2	0.4238	10.7537	-8.3872	-45.9593	
540	94	1	-0.8476	14.4438	-9.3454	-45.9965	
541	94	2	0.4238	15.4438	-9.3454	-45.9965	
542	94	2	0.4238	14.1105	-8.4026	-45.9965	
543	95	1	-0.8476	17.8884	-9.3653	-46.0491	
544	95	2	0.4238	18.8884	-9.3653	-46.0491	
545	95	2	0.4238	17.5551	-8.4225	-46.0491	
546	96	1	-0.8476	21.2442	-9.3929	-45.9993	
547	96	2	0.4238	22.2442	-9.3929	-45.9993	
548	96	2	0.4238	20.9109	-8.4501	-45.9993	
549	97	1	-0.8476	24.6478	-9.3132	-45.9948	
550	97	2	0.4238	25.6478	-9.3132	-45.9948	
551	97	2	0.4238	24.3145	-8.3704	-45.9948	
552	98	1	-0.8476	-26.3143	-5.9562	-46	
553	98	2	0.4238	-25.3143	-5.9562	-46	
554	98	2	0.4238	-26.6476	-5.0134	-46	
555	99	1	-0.8476	-22.9618	-5.9502	-46.0271	
556	99	2	0.4238	-21.9618	-5.9502	-46.0271	
557	99	2	0.4238	-23.2951	-5.0074	-46.0271	
558	100	1	-0.8476	-19.5681	-5.9005	-46.03	
559	100	2	0.4238	-18.5681	-5.9005	-46.03	
560	100	2	0.4238	-19.9014	-4.9577	-46.03	
561	101	1	-0.8476	-16.1113	-5.9098	-45.9766	
562	101	2	0.4238	-15.1113	-5.9098	-45.9766	
563	101	2	0.4238	-16.4446	-4.967	-45.9766	
564	102	1	-0.8476	-12.7583	-5.9174	-45.9876	
565	102	2	0.4238	-11.7583	-5.9174	-45.9876	
566	102	2	0.4238	-13.0917	-4.9746	-45.9876	
567	103	1	-0.8476	-9.3011	-5.929	-46.0479	
568	103	2	0.4238	-8.3011	-5.929	-46.0479	
569	103	2	0.4238	-9.6344	-4.9862	-46.0479	
570	104	1	-0.8476	-5.9041	-5.9753	-45.9972	
571	104	2	0.4238	-4.9041	-5.9753	-45.9972	
572	104	2	0.4238	-6.2374	-5.0325	-45.9972	
573	105	1	-0.8476	-2.5006	-5.9676	-46.0011	
574	105	2	0.4238	-1.5006	-5.9676	-46.0011	
575	105	2	0.4238	-2.8339	-5.0248	-46.0011	
576	106	1	-0.8476	0.83027	-5.9422	-45.9596	
577	106	2	0.4238	1.8303	-5.9422	-45.9596	
578	106	2	0.4238	0.49696	-4.9994	-45.9596	
579	107	1	-0.8476	4.2927	-5.9993	-46.0147	
580	107	2	0.4238	5.2927	-5.9993	-46.0147	
581	107	2	0.4238	3.9594	-5.0565	-46.0147	
582	108	1	-0.8476	7.6148	-5.9904	-45.9944	
583	108	2	0.4238	8.6148	-5.9904	-45.9944	
584	108	2	0.4238	7.2815	-5.0476	-45.9944	
585	109	1	-0.8476	11.0972	-5.9048	-46.043	
586	109	2	0.4238	12.0972	-5.9048	-46.043	
587	109	2	0.4238	10.7638	-4.962	-46.043	
588	110	1	-0.8476	14.4616	-5.977	-46.0476	
589	110	2	0.4238	15.4616	-5.977	-46.0476	
590	110	2	0.4238	14.1283	-5.0342	-46.0476	
591	111	1	-0.8476	17.8173	-5.9907	-45.9626	
592	111	2	0.4238	18.8173	-5.9907	-45.9626	
593	111	2	0.4238	17.484	-5.0479	-45.9626	
594	112	1	-0.8476	21.2696	-5.9215	-46.0447	
595	112	2	0.4238	22.2696	-5.9215	-46.0447	
596	112	2	0.4238	20.9363	-4.9787	-46.0447	
597	113	1	-0.8476	24.6858	-5.9126	-45.9929	
598	113	2	0.4238	25.6858	-5.9126	-45.9929	
599	113	2	0.4238	24.3524	-4.9698	-45.9929	
600	114	1	-0.8476	-26.3399	-2.5606	-46.0084	
601	114	2	0.4238	-25.3399	-2.5606	-46.0084	
602	114	2	0.4238	-26.6732	-1.6178	-46.0084	
603	115	1	-0.8476	-22.9154	-2.5058	-46.0004	
604	115	2	0.4238	-21.9154	-2.5058	-46.0004	
605	115	2	0.4238	-23.2487	-1.563	-46.0004	
606	116	1	-0.8476	-19.5014	-2.5482	-46.033	
607	116	2	0.4238	-18.5014	-2.5482	-46.033	
608	116	2	0.4238	-19.8347	-1.6054	-46.033	
609	117	1	-0.8476	-16.1339	-2.5909	-45.997	
610	117	2	0.4238	-15.1339	-2.5909	-45.997	
611	117	2	0.4238	-16.4673	-1.6481	-45.997	
612	118	1	-0.8476	-12.7961	-2.5015	-46.0344	
613	118	2	0.4238	-11.7961	-2.5015	-46.0344	
614	118	2	0.4238	-13.1294	-1.5587	-46.0344	
615	119	1	-0.8476	-9.3445	-2.5931	-45.9983	
616	119	2	0.4238	-8.3445	-2.5931	-45.9983	
617	119	2	0.4238	-9.6778	-1.6503	-45.9983	
618	120	1	-0.8476	-5.9614	-2.5519	-45.9908	
619	120	2	0.4238	-4.9614	-2.5519	-45.9908	
620	120	2	0.4238	-6.2947	-1.6091	-45.9908	
621	121	1	-0.8476	-2.5397	-2.5446	-46.0247	
622	121	2	0.4238	-1.5397	-2.5446	-46.0247	
623	121	2	0.4238	-2.873	-1.6018	-46.0247	
624	122	1	-0.8476	0.89747	-2.5894	-45.9719	
625	122	2	0.4238	1.8975	-2.5894	-45.9719	
626	122	2	0.4238	0.56416	-1.6466	-45.9719	
627	123	1	-0.8476	4.2634	-2.5838	-45.9518	
628	123	2	0.4238	5.2634	-2.5838	-45.9518	
629	123	2	0.4238	3.9301	-1.641	-45.9518	
630	124	1	-0.8476	7.6781	-2.5514	-46.0194	
631	124	2	0.4238	8.6781	-2.5514	-46.0194	
632	124	2	0.4238	7.3448	-1.6086	-46.0194	
633	125	1	-0.8476	11.0067	-2.5445	-46.0468	
634	125	2	0.4238	12.0067	-2.5445	-46.0468	
635	125	2	0.4238	10.6734	-1.6017	-46.0468	
636	126	1	-0.8476	14.4419	-2.5746	-46.047	
637	126	2	0.4238	15.4419	-2.5746	-46.047	
638	126	2	0.4238	14.1085	-1.6318	-46.047	
639	127	1	-0.8476	17.85	-2.5221	-46.0054	
640	127	2	0.4238	18.85	-2.5221	-46.0054	
641	127	2	0.4238	17.5167	-1.5793	-46.0054	
642	128	1	-0.8476	21.2769	-2.5307	-45.9918	
643	128	2	0.4238	22.2769	-2.5307	-45.9918	
644	128	2	0.4238	20.9436	-1.5879	-45.9918	
645	129	1	-0.8476	24.6851	-2.508	-45.9678	
646	129	2	0.4238	25.6851	-2.508	-45.9678	
647	129	2	0.4238	24.3518	-1.5652	-45.9678	
648	130	1	-0.8476	-26.3532	0.87493	-46.0155	
649	130	2	0.4238	-25.3532	0.87493	-46.0155	
650	130	2	0.4238	-26.6865	1.8177	-46.0155	
651	131	1	-0.8476	-22.9092	0.88237	-45.9515	
652	131	2	0.4238	-21.9092	0.88237	-45.9515	
653	131	2	0.4238	-23.2425	1.8252	-45.9515	
654	132	1	-0.8476	-19.5721	0.84878	-46.0287	
655	132	2	0.4238	-18.5721	0.84878	-46.0287	
656	132	2	0.4238	-19.9054	1.7916	-46.0287	
657	133	1	-0.8476	-16.1679	0.81512	-45.9979	
658	133	2	0.4238	-15.1679	0.81512	-45.9979	
659	133	2	0.4238	-16.5012	1.7579	-45.9979	
660	134	1	-0.8476	-12.7273	0.88865	-46.007	
661	134	2	0.4238	-11.7273	0.88865	-46.007	
662	134	2	0.4238	-13.0606	1.8314	-46.007	
663	135	1	-0.8476	-9.3028	0.8083	-46.0373	
664	135	2	0.4238	-8.3028	0.8083	-46.0373	
665	135	2	0.4238	-9.6361	1.7511	-46.0373	
666	136	1	-0.8476	-5.9429	0.80236	-46.0344	
667	136	2	0.4238	-4.9429	0.80236	-46.0344	
668	136	2	0.4238	-6.2762	1.7452	-46.0344	
669	137	1	-0.8476	-2.5855	0.87173	-46.0104	
670	137	2	0.4238	-1.5855	0.87173	-46.0104	
671	137	2	0.4238	-2.9188	1.8145	-46.0104	
672	138	1	-0.8476	0.84298	0.88859	-45.9714	
673	138	2	0.4238	1.843	0.88859	-45.9714	
674	138	2	0.4238	0.50967	1.8314	-45.9714	
675	139	1	-0.8476	4.2287	0.86374	-46.0242	
676	139	2	0.4238	5.2287	0.86374	-46.0242	
677	139	2	0.4238	3.8953	1.8065	-46.0242	
678	140	1	-0.8476	7.6123	0.89668	-45.9551	
679	140	2	0.4238	8.6123	0.89668	-45.9551	
680	140	2	0.4238	7.279	1.8395	-45.9551	
681	141	1	-0.8476	11.0227	0.84427	-46.0235	
682	141	2	0.4238	12.0227	0.84427	-46.0235	
683	141	2	0.4238	10.6894	1.7871	-46.0235	
684	142	1	-0.8476	14.4491	0.88227	-45.9666	
685	142	2	0.4238	15.4491	0.88227	-45.9666	
686	142	2	0.4238	14.1158	1.8251	-45.9666	
687	143	1	-0.8476	17.8581	0.84741	-45.9739	
688	143	2	0.4238	18.8581	0.84741	-45.9739	
689	143	2	0.4238	17.5248	1.7902	-45.9739	
690	144	1	-0.8476	21.2208	0.80739	-45.9641	
691	144	2	0.4238	22.2208	0.80739	-45.9641	
692	144	2	0.4238	20.8875	1.7502	-45.9641	
693	145	1	-0.8476	24.6775	0.80727	-46.0254	
694	145	2	0.4238	25.6775	0.80727	-46.0254	
695	145	2	0.4238	24.3442	1.7501	-46.0254	
696	146	1	-0.8476	-26.3659	4.2916	-46.0332	
697	146	2	0.4238	-25.3659	4.2916	-46.0332	
698	146	2	0.4238	-26.6992	5.2344	-46.0332	
699	147	1	-0.8476	-22.9335	4.2451	-46.0301	
700	147	2	0.4238	-21.9335	4.2451	-46.0301	
701	147	2	0.4238	-23.2668	5.1879	-46.0301	
702	148	1	-0.8476	-19.5746	4.229	-45.9864	
703	148	2	0.4238	-18.5746	4.229	-45.9864	
704	148	2	0.4238	-19.9079	5.1718	-45.9864	
705	149	1	-0.8476	-16.149	4.2771	-45.9733	
706	149	2	0.4238	-15.149	4.2771	-45.9733	
707	149	2	0.4238	-16.4823	5.2199	-45.9733	
708	150	1	-0.8476	-12.7055	4.2718	-46.0194	
709	150	2	0.4238	-11.7055	4.2718	-46.0194	
710	150	2	0.4238	-13.0388	5.2146	-46.0194	
711	151	1	-0.8476	-9.3497	4.2944	-46.0289	
712	151	2	0.4238	-8.3497	4.2944	-46.0289	
713	151	2	0.4238	-9.683	5.2372	-46.0289	
714	152	1	-0.8476	-5.9217	4.2174	-46.0282	
715	152	2	0.4238	-4.9217	4.2174	-46.0282	
716	152	2	0.4238	-6.255	5.1602	-46.0282	
717	153	1	-0.8476	-2.5798	4.2488	-46.049	
718	153	2	0.4238	-1.5798	4.2488	-46.049	
719	153	2	0.4238	-2.9131	5.1916	-46.049	
720	154	1	-0.8476	0.89082	4.2447	-45.9557	
721	154	2	0.4238	1.8908	4.2447	-45.9557	
722	154	2	0.4238	0.55751	5.1875	-45.9557	
723	155	1	-0.8476	4.2137	4.2026	-46.014	
724	155	2	0.4238	5.2137	4.2026	-46.014	
725	155	2	0.4238	3.8804	5.1454	-46.014	
726	156	1	-0.8476	7.6231	4.2491	-45.9583	
727	156	2	0.4238	8.6231	4.2491	-45.9583	
728	156	2	0.4238	7.2898	5.1919	-45.9583	
729	157	1	-0.8476	11.0653	4.2045	-45.9597	
730	157	2	0.4238	12.0653	4.2045	-45.9597	
731	157	2	0.4238	10.732	5.1473	-45.9597	
732	158	1	-0.8476	14.4947	4.2334	-45.9687	
733	158	2	0.4238	15.4947	4.2334	-45.9687	
734	158	2	0.4238	14.1614	5.1762	-45.9687	
735	159	1	-0.8476	17.8059	4.2281	-46.0391	
736	159	2	0.4238	18.8059	4.2281	-46.0391	
737	159	2	0.4238	17.4726	5.1709	-46.0391	
738	160	1	-0.8476	21.2831	4.2552	-46.0158	
739	160	2	0.4238	22.2831	4.2552	-46.0158	
740	160	2	0.4238	20.9498	5.198	-46.0158	
741	161	1	-0.8476	24.669	4.2282	-45.9735	
742	161	2	0.4238	25.669	4.2282	-45.9735	
743	161	2	0.4238	24.3357	5.171	-45.9735	
744	162	1	-0.8476	-26.3011	7.6526	-45.9737	
745	162	2	0.4238	-25.3011	7.6526	-45.9737	
746	162	2	0.4238	-26.6344	8.5954	-45.9737	
747	163	1	-0.8476	-22.9594	7.6594	-46.0225	
748	163	2	0.4238	-21.9594	7.6594	-46.0225	
749	163	2	0.4238	-23.2927	8.6022	-46.0225	
750	164	1	-0.8476	-19.5084	7.601	-45.9884	
751	164	2	0.4238	-18.5084	7.601	-45.9884	
752	164	2	0.4238	-19.8417	8.5438	-45.9884	
753	165	1	-0.8476	-16.1182	7.6812	-45.9679	
754	165	2	0.4238	-15.1182	7.6812	-45.9679	
755	165	2	0.4238	-16.4515	8.624	-45.9679	
756	166	1	-0.8476	-12.7702	7.6892	-45.9634	
757	166	2	0.4238	-11.7702	7.6892	-45.9634	
758	166	2	0.4238	-13.1036	8.632	-45.9634	
759	167	1	-0.8476	-9.3946	7.6602	-46.017	
760	167	2	0.4238	-8.3946	7.6602	-46.017	
761	167	2	0.4238	-9.7279	8.603	-46.017	
762	168	1	-0.8476	-5.9051	7.6499	-46.0143	
763	168	2	0.4238	-4.9051	7.6499	-46.0143	