# System

13763 atoms
9330 bonds
5113 angles
1193 dihedrals
147 impropers

15 atom types
8 bond types
14 angle types
15 dihedral types
1 improper types
extra bond per atom 2
extra angle per atom 1
extra special per atom 2
-27.2         27.2 xlo xhi
-27.2         27.2 ylo yhi
-50  50 zlo zhi

Atoms

1	1	3	-0.115	0	-9.1962	-13.802	
2	1	3	-0.115	0	-9.9036	-12.5767	
3	1	3	0	0	-9.1962	-11.3515	
4	1	3	-0.115	0	-9.9036	-10.1262	
5	1	3	0	0	-9.1962	-8.901	
6	1	3	-0.115	0	-9.9036	-7.6757	
7	1	3	0	0	-9.1962	-6.4505	
8	1	3	-0.115	0	-9.9036	-5.2252	
9	1	3	0	0	-9.1962	-4	
10	1	13	0.15	0	-9.9036	-2.7747	
11	1	3	0	0	-9.1962	-1.5495	
12	1	3	-0.115	0	-9.9036	-0.32422	
13	1	3	0	0	-9.1962	0.90098	
14	1	13	0.15	0	-9.9036	2.1263	
15	1	3	0	0	-9.1962	3.3515	
16	1	3	-0.115	0	-9.9036	4.5768	
17	1	3	-0.115	0	-9.1962	5.802	
18	1	13	0.15	0	-7.7814	-13.802	
19	1	3	0	0	-7.074	-12.5767	
20	1	3	0	0	-7.7814	-11.3515	
21	1	3	0	0	-7.074	-10.1262	
22	1	3	0	0	-7.7814	-8.901	
23	1	3	0	0	-7.074	-7.6757	
24	1	3	0	0	-7.7814	-6.4505	
25	1	3	0	0	-7.074	-5.2252	
26	1	5	0.265	0	-7.7814	-4	
27	1	5	0.265	0	-7.074	-2.7747	
28	1	3	0	0	-7.7814	-1.5495	
29	1	3	0	0	-7.074	-0.32422	
30	1	3	0	0	-7.7814	0.90098	
31	1	3	0	0	-7.074	2.1263	
32	1	3	0	0	-7.7814	3.3515	
33	1	3	0	0	-7.074	4.5768	
34	1	3	-0.115	0	-7.7814	5.802	
35	1	13	0.15	0	-4.9518	-13.802	
36	1	5	0.265	0	-5.6592	-12.5767	
37	1	5	0.265	0	-4.9518	-11.3515	
38	1	5	0.265	0	-5.6592	-10.1262	
39	1	5	0.265	0	-4.9518	-8.901	
40	1	3	0	0	-5.6592	-7.6757	
41	1	5	0.265	0	-4.9518	-6.4505	
42	1	3	0	0	-5.6592	-5.2252	
43	1	5	0.265	0	-4.9518	-4	
44	1	5	0.265	0	-5.6592	-2.7747	
45	1	3	0	0	-4.9518	-1.5495	
46	1	3	0	0	-5.6592	-0.32422	
47	1	3	0	0	-4.9518	0.90098	
48	1	3	0	0	-5.6592	2.1263	
49	1	3	0	0	-4.9518	3.3515	
50	1	3	0	0	-5.6592	4.5768	
51	1	13	0.15	0	-4.9518	5.802	
52	1	3	-0.115	0	-3.537	-13.802	
53	1	3	0	0	-2.8296	-12.5767	
54	1	3	0	0	-3.537	-11.3515	
55	1	3	0	0	-2.8296	-10.1262	
56	1	5	0.265	0	-3.537	-8.901	
57	1	5	0.265	0	-2.8296	-7.6757	
58	1	5	0.265	0	-3.537	-6.4505	
59	1	5	0.265	0	-2.8296	-5.2252	
60	1	3	0	0	-3.537	-4	
61	1	3	0	0	-2.8296	-2.7747	
62	1	3	0	0	-3.537	-1.5495	
63	1	3	0	0	-2.8296	-0.32422	
64	1	3	0	0	-3.537	0.90098	
65	1	3	0	0	-2.8296	2.1263	
66	1	3	0	0	-3.537	3.3515	
67	1	3	0	0	-2.8296	4.5768	
68	1	3	-0.115	0	-3.537	5.802	
69	1	3	-0.115	0	-0.7074	-13.802	
70	1	3	0	0	-1.4148	-12.5767	
71	1	3	0	0	-0.7074	-11.3515	
72	1	5	0.265	0	-1.4148	-10.1262	
73	1	5	0.265	0	-0.7074	-8.901	
74	1	3	0	0	-1.4148	-7.6757	
75	1	5	0.265	0	-0.7074	-6.4505	
76	1	3	0	0	-1.4148	-5.2252	
77	1	3	0	0	-0.7074	-4	
78	1	3	0	0	-1.4148	-2.7747	
79	1	3	0	0	-0.7074	-1.5495	
80	1	3	0	0	-1.4148	-0.32422	
81	1	3	0	0	-0.7074	0.90098	
82	1	3	0	0	-1.4148	2.1263	
83	1	3	0	0	-0.7074	3.3515	
84	1	3	0	0	-1.4148	4.5768	
85	1	13	0.15	0	-0.7074	5.802	
86	1	3	-0.115	0	0.7074	-13.802	
87	1	3	0	0	1.4148	-12.5767	
88	1	5	0.265	0	0.7074	-11.3515	
89	1	5	0.265	0	1.4148	-10.1262	
90	1	3	0	0	0.7074	-8.901	
91	1	3	0	0	1.4148	-7.6757	
92	1	5	0.265	0	0.7074	-6.4505	
93	1	3	0	0	1.4148	-5.2252	
94	1	3	0	0	0.7074	-4	
95	1	3	0	0	1.4148	-2.7747	
96	1	3	0	0	0.7074	-1.5495	
97	1	3	0	0	1.4148	-0.32422	
98	1	3	0	0	0.7074	0.90098	
99	1	3	0	0	1.4148	2.1263	
100	1	3	0	0	0.7074	3.3515	
101	1	3	0	0	1.4148	4.5768	
102	1	3	-0.115	0	0.7074	5.802	
103	1	13	0.15	0	3.537	-13.802	
104	1	3	0	0	2.8296	-12.5767	
105	1	3	0	0	3.537	-11.3515	
106	1	3	0	0	2.8296	-10.1262	
107	1	5	0.265	0	3.537	-8.901	
108	1	5	0.265	0	2.8296	-7.6757	
109	1	3	0	0	3.537	-6.4505	
110	1	3	0	0	2.8296	-5.2252	
111	1	3	0	0	3.537	-4	
112	1	3	0	0	2.8296	-2.7747	
113	1	3	0	0	3.537	-1.5495	
114	1	3	0	0	2.8296	-0.32422	
115	1	3	0	0	3.537	0.90098	
116	1	3	0	0	2.8296	2.1263	
117	1	3	0	0	3.537	3.3515	
118	1	3	0	0	2.8296	4.5768	
119	1	3	-0.115	0	3.537	5.802	
120	1	13	0.15	0	4.9518	-13.802	
121	1	3	0	0	5.6592	-12.5767	
122	1	3	0	0	4.9518	-11.3515	
123	1	3	0	0	5.6592	-10.1262	
124	1	3	0	0	4.9518	-8.901	
125	1	5	0.265	0	5.6592	-7.6757	
126	1	5	0.265	0	4.9518	-6.4505	
127	1	3	0	0	5.6592	-5.2252	
128	1	3	0	0	4.9518	-4	
129	1	3	0	0	5.6592	-2.7747	
130	1	3	0	0	4.9518	-1.5495	
131	1	3	0	0	5.6592	-0.32422	
132	1	3	0	0	4.9518	0.90098	
133	1	3	0	0	5.6592	2.1263	
134	1	3	0	0	4.9518	3.3515	
135	1	3	0	0	5.6592	4.5768	
136	1	3	-0.115	0	4.9518	5.802	
137	1	3	-0.115	0	7.7814	-13.802	
138	1	3	0	0	7.074	-12.5767	
139	1	3	0	0	7.7814	-11.3515	
140	1	3	0	0	7.074	-10.1262	
141	1	3	0	0	7.7814	-8.901	
142	1	3	0	0	7.074	-7.6757	
143	1	3	0	0	7.7814	-6.4505	
144	1	3	0	0	7.074	-5.2252	
145	1	3	0	0	7.7814	-4	
146	1	3	0	0	7.074	-2.7747	
147	1	3	0	0	7.7814	-1.5495	
148	1	3	0	0	7.074	-0.32422	
149	1	3	0	0	7.7814	0.90098	
150	1	3	0	0	7.074	2.1263	
151	1	3	0	0	7.7814	3.3515	
152	1	3	0	0	7.074	4.5768	
153	1	3	-0.115	0	7.7814	5.802	
154	1	3	-0.115	0	9.1962	-13.802	
155	1	3	-0.115	0	9.9036	-12.5767	
156	1	3	0	0	9.1962	-11.3515	
157	1	3	-0.115	0	9.9036	-10.1262	
158	1	3	0	0	9.1962	-8.901	
159	1	3	-0.115	0	9.9036	-7.6757	
160	1	3	0	0	9.1962	-6.4505	
161	1	3	-0.115	0	9.9036	-5.2252	
162	1	3	0	0	9.1962	-4	
163	1	3	-0.115	0	9.9036	-2.7747	
164	1	3	0	0	9.1962	-1.5495	
165	1	13	0.15	0	9.9036	-0.32422	
166	1	3	0	0	9.1962	0.90098	
167	1	13	0.15	0	9.9036	2.1263	
168	1	3	0	0	9.1962	3.3515	
169	1	3	-0.115	0	9.9036	4.5768	
170	1	13	0.15	0	9.1962	5.802	
171	1	4	0.115	0	-10.9806	-12.5767	
172	1	4	0.115	0	-10.9806	-10.1262	
173	1	4	0.115	0	-10.9806	-7.6757	
174	1	4	0.115	0	-10.9806	-5.2252	
175	1	9	-0.585	0	-11.3036	-2.7747	
176	1	4	0.115	0	-10.9806	-0.32422	
177	1	9	-0.585	0	-11.3036	2.1263	
178	1	4	0.115	0	-10.9806	4.5768	
179	1	4	0.115	0	10.9806	-12.5767	
180	1	4	0.115	0	10.9806	-10.1262	
181	1	4	0.115	0	10.9806	-7.6757	
182	1	4	0.115	0	10.9806	-5.2252	
183	1	4	0.115	0	10.9806	-2.7747	
184	1	9	-0.585	0	11.3036	-0.32422	
185	1	9	-0.585	0	11.3036	2.1263	
186	1	4	0.115	0	10.9806	4.5768	
187	1	4	0.115	0	-9.7347	-14.7347	
188	1	9	-0.585	0	-7.0814	-15.0144	
189	1	4	0.115	0	-9.7347	6.7348	
190	1	4	0.115	0	-7.2429	6.7348	
191	1	9	-0.585	0	-5.6518	-15.0144	
192	1	4	0.115	0	-2.9985	-14.7347	
193	1	9	-0.585	0	-5.6518	7.0145	
194	1	4	0.115	0	-2.9985	6.7348	
195	1	4	0.115	0	-1.2459	-14.7347	
196	1	4	0.115	0	1.2459	-14.7347	
197	1	9	-0.585	0	-1.4074	7.0145	
198	1	4	0.115	0	1.2459	6.7348	
199	1	9	-0.585	0	2.837	-15.0144	
200	1	9	-0.585	0	5.6518	-15.0144	
201	1	4	0.115	0	2.9985	6.7348	
202	1	4	0.115	0	5.4903	6.7348	
203	1	4	0.115	0	7.2429	-14.7347	
204	1	4	0.115	0	9.7347	-14.7347	
205	1	4	0.115	0	7.2429	6.7348	
206	1	9	-0.585	0	9.8962	7.0145	
207	1	7	0.435	-0.7	-12.0036	-2.7747	
208	1	7	0.435	-0.7	-12.0036	2.1263	
209	1	7	0.435	-0.7	12.0036	-0.32422	
210	1	7	0.435	0.7	12.0036	2.1263	
211	1	7	0.435	-0.7	-6.7314	-15.6207	
212	1	7	0.435	-0.7	-6.0018	-15.6207	
213	1	7	0.435	-0.7	-6.0018	7.6207	
214	1	7	0.435	-0.7	-1.7574	7.6207	
215	1	7	0.435	0.7	2.487	-15.6207	
216	1	7	0.435	0.7	6.0018	-15.6207	
217	1	7	0.435	0.7	10.2462	7.6207	
218	1	6	-0.683	1.4	-4.9518	-11.3515	
219	1	7	0.418	2.4	-4.9518	-11.3515	
220	1	6	-0.683	-1.4	-5.6592	-12.5767	
221	1	7	0.418	-2.4	-5.6592	-12.5767	
222	1	6	-0.683	1.4	-5.6592	-10.1262	
223	1	7	0.418	2.4	-5.6592	-10.1262	
224	1	6	-0.683	-1.4	-1.4148	-10.1262	
225	1	7	0.418	-2.4	-1.4148	-10.1262	
226	1	6	-0.683	-1.4	-4.9518	-8.901	
227	1	7	0.418	-2.4	-4.9518	-8.901	
228	1	6	-0.683	1.4	-2.8296	-7.6757	
229	1	7	0.418	2.4	-2.8296	-7.6757	
230	1	6	-0.683	1.4	0.7074	-11.3515	
231	1	7	0.418	2.4	0.7074	-11.3515	
232	1	6	-0.683	-1.4	-0.7074	-8.901	
233	1	7	0.418	-2.4	-0.7074	-8.901	
234	1	6	-0.683	1.4	0.7074	-6.4505	
235	1	7	0.418	2.4	0.7074	-6.4505	
236	1	6	-0.683	-1.4	1.4148	-10.1262	
237	1	7	0.418	-2.4	1.4148	-10.1262	
238	1	6	-0.683	1.4	-0.7074	-6.4505	
239	1	7	0.418	2.4	-0.7074	-6.4505	
240	1	6	-0.683	-1.4	-3.537	-6.4505	
241	1	7	0.418	-2.4	-3.537	-6.4505	
242	1	6	-0.683	1.4	-4.9518	-6.4505	
243	1	7	0.418	2.4	-4.9518	-6.4505	
244	1	6	-0.683	-1.4	-4.9518	-4	
245	1	7	0.418	-2.4	-4.9518	-4	
246	1	6	-0.683	-1.4	-3.537	-8.901	
247	1	7	0.418	-2.4	-3.537	-8.901	
248	1	6	-0.683	-1.4	2.8296	-7.6757	
249	1	7	0.418	-2.4	2.8296	-7.6757	
250	1	6	-0.683	1.4	-7.7814	-4	
251	1	7	0.418	2.4	-7.7814	-4	
252	1	6	-0.683	1.4	3.537	-8.901	
253	1	7	0.418	2.4	3.537	-8.901	
254	1	6	-0.683	1.4	4.9518	-6.4505	
255	1	7	0.418	2.4	4.9518	-6.4505	
256	1	6	-0.683	-1.4	-7.074	-2.7747	
257	1	7	0.418	-2.4	-7.074	-2.7747	
258	1	6	-0.683	1.4	5.6592	-7.6757	
259	1	7	0.418	2.4	5.6592	-7.6757	
260	1	6	-0.683	1.4	-5.6592	-2.7747	
261	1	7	0.418	2.4	-5.6592	-2.7747	
262	1	6	-0.683	-1.4	-2.8296	-5.2252	
263	1	7	0.418	-2.4	-2.8296	-5.2252	
264	2	1	-0.8476	-26.3396	-26.3865	-46.0171	
265	2	2	0.4238	-25.3396	-26.3865	-46.0171	
266	2	2	0.4238	-26.6729	-25.4437	-46.0171	
267	3	1	-0.8476	-22.9239	-26.3402	-46.0399	
268	3	2	0.4238	-21.9239	-26.3402	-46.0399	
269	3	2	0.4238	-23.2572	-25.3974	-46.0399	
270	4	1	-0.8476	-19.5614	-26.3569	-45.9756	
271	4	2	0.4238	-18.5614	-26.3569	-45.9756	
272	4	2	0.4238	-19.8947	-25.4141	-45.9756	
273	5	1	-0.8476	-16.1243	-26.34	-45.9965	
274	5	2	0.4238	-15.1243	-26.34	-45.9965	
275	5	2	0.4238	-16.4576	-25.3972	-45.9965	
276	6	1	-0.8476	-12.793	-26.3486	-46.0261	
277	6	2	0.4238	-11.793	-26.3486	-46.0261	
278	6	2	0.4238	-13.1263	-25.4058	-46.0261	
279	7	1	-0.8476	-9.361	-26.3043	-45.9938	
280	7	2	0.4238	-8.361	-26.3043	-45.9938	
281	7	2	0.4238	-9.6943	-25.3615	-45.9938	
282	8	1	-0.8476	-5.9187	-26.3887	-46.0005	
283	8	2	0.4238	-4.9187	-26.3887	-46.0005	
284	8	2	0.4238	-6.252	-25.4459	-46.0005	
285	9	1	-0.8476	-2.5474	-26.3411	-45.9679	
286	9	2	0.4238	-1.5474	-26.3411	-45.9679	
287	9	2	0.4238	-2.8807	-25.3983	-45.9679	
288	10	1	-0.8476	0.8418	-26.3105	-45.9938	
289	10	2	0.4238	1.8418	-26.3105	-45.9938	
290	10	2	0.4238	0.50849	-25.3677	-45.9938	
291	11	1	-0.8476	4.2723	-26.3287	-45.9936	
292	11	2	0.4238	5.2723	-26.3287	-45.9936	
293	11	2	0.4238	3.939	-25.3859	-45.9936	
294	12	1	-0.8476	7.6263	-26.3852	-46.0492	
295	12	2	0.4238	8.6263	-26.3852	-46.0492	
296	12	2	0.4238	7.293	-25.4424	-46.0492	
297	13	1	-0.8476	11.08	-26.3533	-45.9545	
298	13	2	0.4238	12.08	-26.3533	-45.9545	
299	13	2	0.4238	10.7467	-25.4105	-45.9545	
300	14	1	-0.8476	14.4806	-26.3125	-45.9881	
301	14	2	0.4238	15.4806	-26.3125	-45.9881	
302	14	2	0.4238	14.1473	-25.3697	-45.9881	
303	15	1	-0.8476	17.8895	-26.3436	-45.9508	
304	15	2	0.4238	18.8895	-26.3436	-45.9508	
305	15	2	0.4238	17.5562	-25.4008	-45.9508	
306	16	1	-0.8476	21.2682	-26.3143	-46.0272	
307	16	2	0.4238	22.2682	-26.3143	-46.0272	
308	16	2	0.4238	20.9349	-25.3715	-46.0272	
309	17	1	-0.8476	24.6165	-26.334	-46.0355	
310	17	2	0.4238	25.6165	-26.334	-46.0355	
311	17	2	0.4238	24.2832	-25.3912	-46.0355	
312	18	1	-0.8476	-26.3739	-22.9896	-46.0108	
313	18	2	0.4238	-25.3739	-22.9896	-46.0108	
314	18	2	0.4238	-26.7072	-22.0468	-46.0108	
315	19	1	-0.8476	-22.9939	-22.9352	-46.037	
316	19	2	0.4238	-21.9939	-22.9352	-46.037	
317	19	2	0.4238	-23.3272	-21.9924	-46.037	
318	20	1	-0.8476	-19.5324	-22.9706	-46.0405	
319	20	2	0.4238	-18.5324	-22.9706	-46.0405	
320	20	2	0.4238	-19.8657	-22.0278	-46.0405	
321	21	1	-0.8476	-16.1575	-22.9663	-45.988	
322	21	2	0.4238	-15.1575	-22.9663	-45.988	
323	21	2	0.4238	-16.4908	-22.0235	-45.988	
324	22	1	-0.8476	-12.7189	-22.9283	-45.9732	
325	22	2	0.4238	-11.7189	-22.9283	-45.9732	
326	22	2	0.4238	-13.0522	-21.9855	-45.9732	
327	23	1	-0.8476	-9.3235	-22.9226	-45.9886	
328	23	2	0.4238	-8.3235	-22.9226	-45.9886	
329	23	2	0.4238	-9.6568	-21.9798	-45.9886	
330	24	1	-0.8476	-5.9207	-22.9169	-46.0316	
331	24	2	0.4238	-4.9207	-22.9169	-46.0316	
332	24	2	0.4238	-6.254	-21.9741	-46.0316	
333	25	1	-0.8476	-2.5898	-22.9299	-46.0207	
334	25	2	0.4238	-1.5898	-22.9299	-46.0207	
335	25	2	0.4238	-2.9231	-21.9871	-46.0207	
336	26	1	-0.8476	0.83058	-22.9654	-45.9964	
337	26	2	0.4238	1.8306	-22.9654	-45.9964	
338	26	2	0.4238	0.49727	-22.0226	-45.9964	
339	27	1	-0.8476	4.2201	-22.9055	-45.9915	
340	27	2	0.4238	5.2201	-22.9055	-45.9915	
341	27	2	0.4238	3.8868	-21.9627	-45.9915	
342	28	1	-0.8476	7.6728	-22.9763	-45.9931	
343	28	2	0.4238	8.6728	-22.9763	-45.9931	
344	28	2	0.4238	7.3395	-22.0335	-45.9931	
345	29	1	-0.8476	11.0033	-22.9534	-45.985	
346	29	2	0.4238	12.0033	-22.9534	-45.985	
347	29	2	0.4238	10.67	-22.0106	-45.985	
348	30	1	-0.8476	14.4615	-22.9913	-46.013	
349	30	2	0.4238	15.4615	-22.9913	-46.013	
350	30	2	0.4238	14.1282	-22.0485	-46.013	
351	31	1	-0.8476	17.8287	-22.9582	-46.0274	
352	31	2	0.4238	18.8287	-22.9582	-46.0274	
353	31	2	0.4238	17.4954	-22.0154	-46.0274	
354	32	1	-0.8476	21.2358	-22.9814	-45.9848	
355	32	2	0.4238	22.2358	-22.9814	-45.9848	
356	32	2	0.4238	20.9025	-22.0386	-45.9848	
357	33	1	-0.8476	24.647	-22.9671	-45.9537	
358	33	2	0.4238	25.647	-22.9671	-45.9537	
359	33	2	0.4238	24.3137	-22.0243	-45.9537	
360	34	1	-0.8476	-26.3881	-19.5405	-46.007	
361	34	2	0.4238	-25.3881	-19.5405	-46.007	
362	34	2	0.4238	-26.7214	-18.5977	-46.007	
363	35	1	-0.8476	-22.9081	-19.5705	-46.0079	
364	35	2	0.4238	-21.9081	-19.5705	-46.0079	
365	35	2	0.4238	-23.2414	-18.6277	-46.0079	
366	36	1	-0.8476	-19.5959	-19.5434	-46.0008	
367	36	2	0.4238	-18.5959	-19.5434	-46.0008	
368	36	2	0.4238	-19.9292	-18.6006	-46.0008	
369	37	1	-0.8476	-16.1894	-19.5534	-45.9752	
370	37	2	0.4238	-15.1894	-19.5534	-45.9752	
371	37	2	0.4238	-16.5227	-18.6106	-45.9752	
372	38	1	-0.8476	-12.7941	-19.5666	-45.9786	
373	38	2	0.4238	-11.7941	-19.5666	-45.9786	
374	38	2	0.4238	-13.1275	-18.6238	-45.9786	
375	39	1	-0.8476	-9.3239	-19.5501	-46.0201	
376	39	2	0.4238	-8.3239	-19.5501	-46.0201	
377	39	2	0.4238	-9.6572	-18.6073	-46.0201	
378	40	1	-0.8476	-5.942	-19.5494	-46.0346	
379	40	2	0.4238	-4.942	-19.5494	-46.0346	
380	40	2	0.4238	-6.2753	-18.6066	-46.0346	
381	41	1	-0.8476	-2.588	-19.5301	-45.9577	
382	41	2	0.4238	-1.588	-19.5301	-45.9577	
383	41	2	0.4238	-2.9213	-18.5873	-45.9577	
384	42	1	-0.8476	0.82775	-19.5855	-45.9681	
385	42	2	0.4238	1.8278	-19.5855	-45.9681	
386	42	2	0.4238	0.49444	-18.6427	-45.9681	
387	43	1	-0.8476	4.2584	-19.5408	-45.955	
388	43	2	0.4238	5.2584	-19.5408	-45.955	
389	43	2	0.4238	3.9251	-18.598	-45.955	
390	44	1	-0.8476	7.6608	-19.571	-46.0285	
391	44	2	0.4238	8.6608	-19.571	-46.0285	
392	44	2	0.4238	7.3275	-18.6282	-46.0285	
393	45	1	-0.8476	11.039	-19.5842	-45.9617	
394	45	2	0.4238	12.039	-19.5842	-45.9617	
395	45	2	0.4238	10.7057	-18.6414	-45.9617	
396	46	1	-0.8476	14.4006	-19.5645	-46.0462	
397	46	2	0.4238	15.4006	-19.5645	-46.0462	
398	46	2	0.4238	14.0673	-18.6217	-46.0462	
399	47	1	-0.8476	17.8996	-19.5055	-46.0361	
400	47	2	0.4238	18.8996	-19.5055	-46.0361	
401	47	2	0.4238	17.5663	-18.5627	-46.0361	
402	48	1	-0.8476	21.2029	-19.5557	-46.0178	
403	48	2	0.4238	22.2029	-19.5557	-46.0178	
404	48	2	0.4238	20.8696	-18.6129	-46.0178	
405	49	1	-0.8476	24.6961	-19.5127	-46.0466	
406	49	2	0.4238	25.6961	-19.5127	-46.0466	
407	49	2	0.4238	24.3628	-18.5699	-46.0466	
408	50	1	-0.8476	-26.3051	-16.1913	-45.9757	
409	50	2	0.4238	-25.3051	-16.1913	-45.9757	
410	50	2	0.4238	-26.6384	-15.2485	-45.9757	
411	51	1	-0.8476	-22.9463	-16.138	-46.036	
412	51	2	0.4238	-21.9463	-16.138	-46.036	
413	51	2	0.4238	-23.2797	-15.1952	-46.036	
414	52	1	-0.8476	-19.5367	-16.1592	-46.0163	
415	52	2	0.4238	-18.5367	-16.1592	-46.0163	
416	52	2	0.4238	-19.87	-15.2164	-46.0163	
417	53	1	-0.8476	-16.1122	-16.1308	-45.9602	
418	53	2	0.4238	-15.1122	-16.1308	-45.9602	
419	53	2	0.4238	-16.4455	-15.188	-45.9602	
420	54	1	-0.8476	-12.7077	-16.1907	-46.0399	
421	54	2	0.4238	-11.7077	-16.1907	-46.0399	
422	54	2	0.4238	-13.041	-15.2479	-46.0399	
423	55	1	-0.8476	-9.395	-16.1828	-45.9729	
424	55	2	0.4238	-8.395	-16.1828	-45.9729	
425	55	2	0.4238	-9.7283	-15.24	-45.9729	
426	56	1	-0.8476	-5.9163	-16.1525	-46.0441	
427	56	2	0.4238	-4.9163	-16.1525	-46.0441	
428	56	2	0.4238	-6.2496	-15.2097	-46.0441	
429	57	1	-0.8476	-2.5889	-16.1198	-46.034	
430	57	2	0.4238	-1.5889	-16.1198	-46.034	
431	57	2	0.4238	-2.9222	-15.177	-46.034	
432	58	1	-0.8476	0.87741	-16.1522	-46.0241	
433	58	2	0.4238	1.8774	-16.1522	-46.0241	
434	58	2	0.4238	0.5441	-15.2094	-46.0241	
435	59	1	-0.8476	4.2927	-16.107	-45.9938	
436	59	2	0.4238	5.2927	-16.107	-45.9938	
437	59	2	0.4238	3.9593	-15.1642	-45.9938	
438	60	1	-0.8476	7.652	-16.1413	-46.0493	
439	60	2	0.4238	8.652	-16.1413	-46.0493	
440	60	2	0.4238	7.3187	-15.1985	-46.0493	
441	61	1	-0.8476	11.0861	-16.1318	-46.0253	
442	61	2	0.4238	12.0861	-16.1318	-46.0253	
443	61	2	0.4238	10.7528	-15.189	-46.0253	
444	62	1	-0.8476	14.4396	-16.1848	-46.0308	
445	62	2	0.4238	15.4396	-16.1848	-46.0308	
446	62	2	0.4238	14.1063	-15.242	-46.0308	
447	63	1	-0.8476	17.8497	-16.1317	-45.9892	
448	63	2	0.4238	18.8497	-16.1317	-45.9892	
449	63	2	0.4238	17.5163	-15.1889	-45.9892	
450	64	1	-0.8476	21.269	-16.1974	-46.0499	
451	64	2	0.4238	22.269	-16.1974	-46.0499	
452	64	2	0.4238	20.9357	-15.2546	-46.0499	
453	65	1	-0.8476	24.67	-16.1583	-46.0126	
454	65	2	0.4238	25.67	-16.1583	-46.0126	
455	65	2	0.4238	24.3367	-15.2155	-46.0126	
456	66	1	-0.8476	-26.3116	-12.7924	-46.0428	
457	66	2	0.4238	-25.3116	-12.7924	-46.0428	
458	66	2	0.4238	-26.6449	-11.8496	-46.0428	
459	67	1	-0.8476	-22.9288	-12.7497	-45.9736	
460	67	2	0.4238	-21.9288	-12.7497	-45.9736	
461	67	2	0.4238	-23.2621	-11.8069	-45.9736	
462	68	1	-0.8476	-19.5995	-12.7597	-45.9952	
463	68	2	0.4238	-18.5995	-12.7597	-45.9952	
464	68	2	0.4238	-19.9328	-11.8169	-45.9952	
465	69	1	-0.8476	-16.1439	-12.7152	-46.0215	
466	69	2	0.4238	-15.1439	-12.7152	-46.0215	
467	69	2	0.4238	-16.4772	-11.7724	-46.0215	
468	70	1	-0.8476	-12.7801	-12.7213	-45.974	
469	70	2	0.4238	-11.7801	-12.7213	-45.974	
470	70	2	0.4238	-13.1134	-11.7785	-45.974	
471	71	1	-0.8476	-9.3656	-12.7321	-45.9883	
472	71	2	0.4238	-8.3656	-12.7321	-45.9883	
473	71	2	0.4238	-9.6989	-11.7893	-45.9883	
474	72	1	-0.8476	-5.9669	-12.7323	-46.0121	
475	72	2	0.4238	-4.9669	-12.7323	-46.0121	
476	72	2	0.4238	-6.3002	-11.7895	-46.0121	
477	73	1	-0.8476	-2.5475	-12.7933	-45.9675	
478	73	2	0.4238	-1.5475	-12.7933	-45.9675	
479	73	2	0.4238	-2.8808	-11.8505	-45.9675	
480	74	1	-0.8476	0.8253	-12.7747	-46.0279	
481	74	2	0.4238	1.8253	-12.7747	-46.0279	
482	74	2	0.4238	0.49199	-11.8319	-46.0279	
483	75	1	-0.8476	4.2586	-12.7911	-45.9779	
484	75	2	0.4238	5.2586	-12.7911	-45.9779	
485	75	2	0.4238	3.9253	-11.8483	-45.9779	
486	76	1	-0.8476	7.6806	-12.7407	-45.9794	
487	76	2	0.4238	8.6806	-12.7407	-45.9794	
488	76	2	0.4238	7.3473	-11.7979	-45.9794	
489	77	1	-0.8476	11.0395	-12.7369	-46.0226	
490	77	2	0.4238	12.0395	-12.7369	-46.0226	
491	77	2	0.4238	10.7062	-11.7941	-46.0226	
492	78	1	-0.8476	14.447	-12.7233	-46.0105	
493	78	2	0.4238	15.447	-12.7233	-46.0105	
494	78	2	0.4238	14.1137	-11.7805	-46.0105	
495	79	1	-0.8476	17.878	-12.7871	-45.9836	
496	79	2	0.4238	18.878	-12.7871	-45.9836	
497	79	2	0.4238	17.5447	-11.8443	-45.9836	
498	80	1	-0.8476	21.2972	-12.7828	-45.96	
499	80	2	0.4238	22.2972	-12.7828	-45.96	
500	80	2	0.4238	20.9639	-11.84	-45.96	
501	81	1	-0.8476	24.6147	-12.7349	-46.0387	
502	81	2	0.4238	25.6147	-12.7349	-46.0387	
503	81	2	0.4238	24.2814	-11.7921	-46.0387	
504	82	1	-0.8476	-26.3457	-9.3193	-46.0469	
505	82	2	0.4238	-25.3457	-9.3193	-46.0469	
506	82	2	0.4238	-26.679	-8.3765	-46.0469	
507	83	1	-0.8476	-22.906	-9.3982	-46.0318	
508	83	2	0.4238	-21.906	-9.3982	-46.0318	
509	83	2	0.4238	-23.2393	-8.4554	-46.0318	
510	84	1	-0.8476	-19.5126	-9.3334	-45.9512	
511	84	2	0.4238	-18.5126	-9.3334	-45.9512	
512	84	2	0.4238	-19.8459	-8.3906	-45.9512	
513	85	1	-0.8476	-16.1252	-9.3976	-46.0392	
514	85	2	0.4238	-15.1252	-9.3976	-46.0392	
515	85	2	0.4238	-16.4585	-8.4548	-46.0392	
516	86	1	-0.8476	-12.7859	-9.3833	-45.9953	
517	86	2	0.4238	-11.7859	-9.3833	-45.9953	
518	86	2	0.4238	-13.1192	-8.4405	-45.9953	
519	87	1	-0.8476	-9.3591	-9.3095	-46.04	
520	87	2	0.4238	-8.3591	-9.3095	-46.04	
521	87	2	0.4238	-9.6924	-8.3667	-46.04	
522	88	1	-0.8476	-5.9841	-9.3268	-46.0133	
523	88	2	0.4238	-4.9841	-9.3268	-46.0133	
524	88	2	0.4238	-6.3174	-8.384	-46.0133	
525	89	1	-0.8476	-2.505	-9.3508	-45.9614	
526	89	2	0.4238	-1.505	-9.3508	-45.9614	
527	89	2	0.4238	-2.8383	-8.408	-45.9614	
528	90	1	-0.8476	0.85813	-9.3982	-46.0196	
529	90	2	0.4238	1.8581	-9.3982	-46.0196	
530	90	2	0.4238	0.52482	-8.4554	-46.0196	
531	91	1	-0.8476	4.2653	-9.3168	-45.9626	
532	91	2	0.4238	5.2653	-9.3168	-45.9626	
533	91	2	0.4238	3.932	-8.374	-45.9626	
534	92	1	-0.8476	7.6019	-9.3321	-46.0016	
535	92	2	0.4238	8.6019	-9.3321	-46.0016	
536	92	2	0.4238	7.2686	-8.3893	-46.0016	
537	93	1	-0.8476	11.0071	-9.3423	-45.9927	
538	93	2	0.4238	12.0071	-9.3423	-45.9927	
539	93	2	0.4238	10.6738	-8.3995	-45.9927	
540	94	1	-0.8476	14.4305	-9.3191	-45.9577	
541	94	2	0.4238	15.4305	-9.3191	-45.9577	
542	94	2	0.4238	14.0972	-8.3763	-45.9577	
543	95	1	-0.8476	17.8911	-9.3368	-46.0269	
544	95	2	0.4238	18.8911	-9.3368	-46.0269	
545	95	2	0.4238	17.5578	-8.394	-46.0269	
546	96	1	-0.8476	21.2547	-9.3858	-45.9901	
547	96	2	0.4238	22.2547	-9.3858	-45.9901	
548	96	2	0.4238	20.9214	-8.443	-45.9901	
549	97	1	-0.8476	24.6173	-9.3317	-45.9879	
550	97	2	0.4238	25.6173	-9.3317	-45.9879	
551	97	2	0.4238	24.284	-8.3889	-45.9879	
552	98	1	-0.8476	-26.3242	-5.9625	-46.0346	
553	98	2	0.4238	-25.3242	-5.9625	-46.0346	
554	98	2	0.4238	-26.6575	-5.0197	-46.0346	
555	99	1	-0.8476	-22.928	-5.9053	-45.9937	
556	99	2	0.4238	-21.928	-5.9053	-45.9937	
557	99	2	0.4238	-23.2614	-4.9625	-45.9937	
558	100	1	-0.8476	-19.5634	-5.9453	-46.0383	
559	100	2	0.4238	-18.5634	-5.9453	-46.0383	
560	100	2	0.4238	-19.8967	-5.0025	-46.0383	
561	101	1	-0.8476	-16.1345	-5.9593	-45.9545	
562	101	2	0.4238	-15.1345	-5.9593	-45.9545	
563	101	2	0.4238	-16.4678	-5.0165	-45.9545	
564	102	1	-0.8476	-12.7378	-5.9059	-45.9839	
565	102	2	0.4238	-11.7378	-5.9059	-45.9839	
566	102	2	0.4238	-13.0711	-4.9631	-45.9839	
567	103	1	-0.8476	-9.33	-5.922	-45.9813	
568	103	2	0.4238	-8.33	-5.922	-45.9813	
569	103	2	0.4238	-9.6633	-4.9792	-45.9813	
570	104	1	-0.8476	-5.9598	-5.9952	-45.9678	
571	104	2	0.4238	-4.9598	-5.9952	-45.9678	
572	104	2	0.4238	-6.2931	-5.0524	-45.9678	
573	105	1	-0.8476	-2.5983	-5.9592	-46.0244	
574	105	2	0.4238	-1.5983	-5.9592	-46.0244	
575	105	2	0.4238	-2.9316	-5.0164	-46.0244	
576	106	1	-0.8476	0.84934	-5.9097	-45.9884	
577	106	2	0.4238	1.8493	-5.9097	-45.9884	
578	106	2	0.4238	0.51603	-4.9669	-45.9884	
579	107	1	-0.8476	4.2218	-5.9235	-45.974	
580	107	2	0.4238	5.2218	-5.9235	-45.974	
581	107	2	0.4238	3.8885	-4.9807	-45.974	
582	108	1	-0.8476	7.6732	-5.9755	-46.0394	
583	108	2	0.4238	8.6732	-5.9755	-46.0394	
584	108	2	0.4238	7.3399	-5.0327	-46.0394	
585	109	1	-0.8476	11.0172	-5.9193	-45.9693	
586	109	2	0.4238	12.0172	-5.9193	-45.9693	
587	109	2	0.4238	10.6839	-4.9765	-45.9693	
588	110	1	-0.8476	14.4704	-5.9964	-45.9725	
589	110	2	0.4238	15.4704	-5.9964	-45.9725	
590	110	2	0.4238	14.1371	-5.0536	-45.9725	
591	111	1	-0.8476	17.8412	-5.975	-45.9789	
592	111	2	0.4238	18.8412	-5.975	-45.9789	
593	111	2	0.4238	17.5079	-5.0322	-45.9789	
594	112	1	-0.8476	21.2992	-5.904	-46.0254	
595	112	2	0.4238	22.2992	-5.904	-46.0254	
596	112	2	0.4238	20.9659	-4.9612	-46.0254	
597	113	1	-0.8476	24.6012	-5.9195	-46.0087	
598	113	2	0.4238	25.6012	-5.9195	-46.0087	
599	113	2	0.4238	24.2679	-4.9767	-46.0087	
600	114	1	-0.8476	-26.3865	-2.5027	-46.006	
601	114	2	0.4238	-25.3865	-2.5027	-46.006	
602	114	2	0.4238	-26.7198	-1.5599	-46.006	
603	115	1	-0.8476	-22.9355	-2.5684	-46.0107	
604	115	2	0.4238	-21.9355	-2.5684	-46.0107	
605	115	2	0.4238	-23.2688	-1.6256	-46.0107	
606	116	1	-0.8476	-19.5095	-2.5709	-45.9775	
607	116	2	0.4238	-18.5095	-2.5709	-45.9775	
608	116	2	0.4238	-19.8428	-1.6281	-45.9775	
609	117	1	-0.8476	-16.1275	-2.5859	-46.0447	
610	117	2	0.4238	-15.1275	-2.5859	-46.0447	
611	117	2	0.4238	-16.4609	-1.6431	-46.0447	
612	118	1	-0.8476	-12.7734	-2.5868	-45.967	
613	118	2	0.4238	-11.7734	-2.5868	-45.967	
614	118	2	0.4238	-13.1067	-1.644	-45.967	
615	119	1	-0.8476	-9.3494	-2.5708	-46.0377	
616	119	2	0.4238	-8.3494	-2.5708	-46.0377	
617	119	2	0.4238	-9.6827	-1.628	-46.0377	
618	120	1	-0.8476	-5.9385	-2.5611	-45.9688	
619	120	2	0.4238	-4.9385	-2.5611	-45.9688	
620	120	2	0.4238	-6.2719	-1.6183	-45.9688	
621	121	1	-0.8476	-2.5071	-2.5359	-45.9552	
622	121	2	0.4238	-1.5071	-2.5359	-45.9552	
623	121	2	0.4238	-2.8404	-1.5931	-45.9552	
624	122	1	-0.8476	0.81243	-2.5482	-45.9716	
625	122	2	0.4238	1.8124	-2.5482	-45.9716	
626	122	2	0.4238	0.47912	-1.6054	-45.9716	
627	123	1	-0.8476	4.2982	-2.5551	-45.9923	
628	123	2	0.4238	5.2982	-2.5551	-45.9923	
629	123	2	0.4238	3.9649	-1.6123	-45.9923	
630	124	1	-0.8476	7.6574	-2.5648	-46.0391	
631	124	2	0.4238	8.6574	-2.5648	-46.0391	
632	124	2	0.4238	7.3241	-1.622	-46.0391	
633	125	1	-0.8476	11.0387	-2.5079	-45.9717	
634	125	2	0.4238	12.0387	-2.5079	-45.9717	
635	125	2	0.4238	10.7054	-1.5651	-45.9717	
636	126	1	-0.8476	14.405	-2.512	-45.9977	
637	126	2	0.4238	15.405	-2.512	-45.9977	
638	126	2	0.4238	14.0717	-1.5692	-45.9977	
639	127	1	-0.8476	17.8118	-2.5446	-46.0255	
640	127	2	0.4238	18.8118	-2.5446	-46.0255	
641	127	2	0.4238	17.4785	-1.6018	-46.0255	
642	128	1	-0.8476	21.2634	-2.5334	-46.022	
643	128	2	0.4238	22.2634	-2.5334	-46.022	
644	128	2	0.4238	20.9301	-1.5906	-46.022	
645	129	1	-0.8476	24.6175	-2.5525	-45.9854	
646	129	2	0.4238	25.6175	-2.5525	-45.9854	
647	129	2	0.4238	24.2842	-1.6097	-45.9854	
648	130	1	-0.8476	-26.3834	0.804	-45.9986	
649	130	2	0.4238	-25.3834	0.804	-45.9986	
650	130	2	0.4238	-26.7167	1.7468	-45.9986	
651	131	1	-0.8476	-22.9813	0.88693	-46.0341	
652	131	2	0.4238	-21.9813	0.88693	-46.0341	
653	131	2	0.4238	-23.3146	1.8297	-46.0341	
654	132	1	-0.8476	-19.5975	0.85144	-45.9666	
655	132	2	0.4238	-18.5975	0.85144	-45.9666	
656	132	2	0.4238	-19.9308	1.7942	-45.9666	
657	133	1	-0.8476	-16.1949	0.86581	-46.0392	
658	133	2	0.4238	-15.1949	0.86581	-46.0392	
659	133	2	0.4238	-16.5282	1.8086	-46.0392	
660	134	1	-0.8476	-12.7018	0.8061	-46.0156	
661	134	2	0.4238	-11.7018	0.8061	-46.0156	
662	134	2	0.4238	-13.0351	1.7489	-46.0156	
663	135	1	-0.8476	-9.3658	0.85158	-46.034	
664	135	2	0.4238	-8.3658	0.85158	-46.034	
665	135	2	0.4238	-9.6991	1.7944	-46.034	
666	136	1	-0.8476	-5.9909	0.88464	-46.0362	
667	136	2	0.4238	-4.9909	0.88464	-46.0362	
668	136	2	0.4238	-6.3242	1.8274	-46.0362	
669	137	1	-0.8476	-2.5381	0.83309	-46.0208	
670	137	2	0.4238	-1.5381	0.83309	-46.0208	
671	137	2	0.4238	-2.8714	1.7759	-46.0208	
672	138	1	-0.8476	0.83785	0.8215	-46.0159	
673	138	2	0.4238	1.8379	0.8215	-46.0159	
674	138	2	0.4238	0.50454	1.7643	-46.0159	
675	139	1	-0.8476	4.223	0.87111	-46.0427	
676	139	2	0.4238	5.223	0.87111	-46.0427	
677	139	2	0.4238	3.8897	1.8139	-46.0427	
678	140	1	-0.8476	7.6382	0.87186	-46.0001	
679	140	2	0.4238	8.6382	0.87186	-46.0001	
680	140	2	0.4238	7.3049	1.8147	-46.0001	
681	141	1	-0.8476	11.0307	0.82962	-46.0138	
682	141	2	0.4238	12.0307	0.82962	-46.0138	
683	141	2	0.4238	10.6974	1.7724	-46.0138	
684	142	1	-0.8476	14.4589	0.86471	-45.9619	
685	142	2	0.4238	15.4589	0.86471	-45.9619	
686	142	2	0.4238	14.1256	1.8075	-45.9619	
687	143	1	-0.8476	17.8233	0.88675	-45.9642	
688	143	2	0.4238	18.8233	0.88675	-45.9642	
689	143	2	0.4238	17.49	1.8295	-45.9642	
690	144	1	-0.8476	21.2969	0.89591	-45.9843	
691	144	2	0.4238	22.2969	0.89591	-45.9843	
692	144	2	0.4238	20.9636	1.8387	-45.9843	
693	145	1	-0.8476	24.6925	0.86493	-46.0146	
694	145	2	0.4238	25.6925	0.86493	-46.0146	
695	145	2	0.4238	24.3592	1.8077	-46.0146	
696	146	1	-0.8476	-26.3888	4.2638	-45.975	
697	146	2	0.4238	-25.3888	4.2638	-45.975	
698	146	2	0.4238	-26.7222	5.2066	-45.975	
699	147	1	-0.8476	-22.9209	4.2465	-45.9586	
700	147	2	0.4238	-21.9209	4.2465	-45.9586	
701	147	2	0.4238	-23.2542	5.1893	-45.9586	
702	148	1	-0.8476	-19.5105	4.2951	-46.0392	
703	148	2	0.4238	-18.5105	4.2951	-46.0392	
704	148	2	0.4238	-19.8438	5.2379	-46.0392	
705	149	1	-0.8476	-16.1423	4.2699	-46.01	
706	149	2	0.4238	-15.1423	4.2699	-46.01	
707	149	2	0.4238	-16.4756	5.2127	-46.01	
708	150	1	-0.8476	-12.7698	4.2038	-46.0001	
709	150	2	0.4238	-11.7698	4.2038	-46.0001	
710	150	2	0.4238	-13.1031	5.1466	-46.0001	
711	151	1	-0.8476	-9.3933	4.2632	-45.9946	
712	151	2	0.4238	-8.3933	4.2632	-45.9946	
713	151	2	0.4238	-9.7266	5.206	-45.9946	
714	152	1	-0.8476	-5.9222	4.2071	-46.0297	
715	152	2	0.4238	-4.9222	4.2071	-46.0297	
716	152	2	0.4238	-6.2555	5.1499	-46.0297	
717	153	1	-0.8476	-2.5434	4.2302	-45.9986	
718	153	2	0.4238	-1.5434	4.2302	-45.9986	
719	153	2	0.4238	-2.8767	5.173	-45.9986	
720	154	1	-0.8476	0.8193	4.2398	-46.0232	
721	154	2	0.4238	1.8193	4.2398	-46.0232	
722	154	2	0.4238	0.48599	5.1826	-46.0232	
723	155	1	-0.8476	4.281	4.2562	-45.9647	
724	155	2	0.4238	5.281	4.2562	-45.9647	
725	155	2	0.4238	3.9477	5.199	-45.9647	
726	156	1	-0.8476	7.6219	4.2062	-46.01	
727	156	2	0.4238	8.6219	4.2062	-46.01	
728	156	2	0.4238	7.2886	5.149	-46.01	
729	157	1	-0.8476	11.0295	4.2775	-46.0292	
730	157	2	0.4238	12.0295	4.2775	-46.0292	
731	157	2	0.4238	10.6962	5.2203	-46.0292	
732	158	1	-0.8476	14.4092	4.2547	-45.9734	
733	158	2	0.4238	15.4092	4.2547	-45.9734	
734	158	2	0.4238	14.0759	5.1975	-45.9734	
735	159	1	-0.8476	17.8345	4.2597	-46.0307	
736	159	2	0.4238	18.8345	4.2597	-46.0307	
737	159	2	0.4238	17.5012	5.2025	-46.0307	
738	160	1	-0.8476	21.2866	4.2586	-45.9703	
739	160	2	0.4238	22.2866	4.2586	-45.9703	
740	160	2	0.4238	20.9533	5.2014	-45.9703	
741	161	1	-0.8476	24.6542	4.276	-45.9658	
742	161	2	0.4238	25.6542	4.276	-45.9658	
743	161	2	0.4238	24.3209	5.2188	-45.9658	
744	162	1	-0.8476	-26.3326	7.6723	-45.9736	
745	162	2	0.4238	-25.3326	7.6723	-45.9736	
746	162	2	0.4238	-26.6659	8.6151	-45.9736	
747	163	1	-0.8476	-22.9206	7.6499	-46.0385	
748	163	2	0.4238	-21.9206	7.6499	-46.0385	
749	163	2	0.4238	-23.2539	8.5927	-46.0385	
750	164	1	-0.8476	-19.5945	7.6641	-46.0419	
751	164	2	0.4238	-18.5945	7.6641	-46.0419	
752	164	2	0.4238	-19.9278	8.6069	-46.0419	
753	165	1	-0.8476	-16.1452	7.6339	-46.0113	
754	165	2	0.4238	-15.1452	7.6339	-46.0113	
755	165	2	0.4238	-16.4785	8.5767	-46.0113	
756	166	1	-0.8476	-12.7608	7.6466	-45.9564	
757	166	2	0.4238	-11.7608	7.6466	-45.9564	
758	166	2	0.4238	-13.0941	8.5894	-45.9564	
759	167	1	-0.8476	-9.3405	7.6234	-45.9768	
760	167	2	0.4238	-8.3405	7.6234	-45.9768	
761	167	2	0.4238	-9.6738	8.5662	-45.9768	
762	168	1	-0.8476	-5.9332	7.6137	-46.0358	
763	168	2	0.4238	-4.9332	7.6137	-46.0358	
764	168	2	0.4238	-6.2665	8.5565	-46.0358	
765	169	1	-0.8476	-2.5936	7.6247	-45.9802	
766	169	2	0.4238	-1.5936	7.6247	-45.9802	
767	169	2	0.4238	-2.9269	8.5675	-45.9802	