# System

13763 atoms
9330 bonds
5113 angles
1193 dihedrals
147 impropers

15 atom types
8 bond types
14 angle types
15 dihedral types
1 improper types
extra bond per atom 2
extra angle per atom 1
extra special per atom 2
-27.2         27.2 xlo xhi
-27.2         27.2 ylo yhi
-50  50 zlo zhi

Atoms

1	1	3	-0.115	0	-9.1962	0.19798	
2	1	3	-0.115	0	-9.9036	1.4233	
3	1	3	0	0	-9.1962	2.6485	
4	1	3	-0.115	0	-9.9036	3.8738	
5	1	3	0	0	-9.1962	5.099	
6	1	3	-0.115	0	-9.9036	6.3243	
7	1	3	0	0	-9.1962	7.5495	
8	1	3	-0.115	0	-9.9036	8.7748	
9	1	3	0	0	-9.1962	10	
10	1	13	0.15	0	-9.9036	11.2253	
11	1	3	0	0	-9.1962	12.4505	
12	1	3	-0.115	0	-9.9036	13.6758	
13	1	3	0	0	-9.1962	14.901	
14	1	13	0.15	0	-9.9036	16.1263	
15	1	3	0	0	-9.1962	17.3515	
16	1	3	-0.115	0	-9.9036	18.5768	
17	1	3	-0.115	0	-9.1962	19.802	
18	1	13	0.15	0	-7.7814	0.19798	
19	1	3	0	0	-7.074	1.4233	
20	1	3	0	0	-7.7814	2.6485	
21	1	3	0	0	-7.074	3.8738	
22	1	3	0	0	-7.7814	5.099	
23	1	3	0	0	-7.074	6.3243	
24	1	3	0	0	-7.7814	7.5495	
25	1	3	0	0	-7.074	8.7748	
26	1	5	0.265	0	-7.7814	10	
27	1	5	0.265	0	-7.074	11.2253	
28	1	3	0	0	-7.7814	12.4505	
29	1	3	0	0	-7.074	13.6758	
30	1	3	0	0	-7.7814	14.901	
31	1	3	0	0	-7.074	16.1263	
32	1	3	0	0	-7.7814	17.3515	
33	1	3	0	0	-7.074	18.5768	
34	1	3	-0.115	0	-7.7814	19.802	
35	1	13	0.15	0	-4.9518	0.19798	
36	1	5	0.265	0	-5.6592	1.4233	
37	1	5	0.265	0	-4.9518	2.6485	
38	1	5	0.265	0	-5.6592	3.8738	
39	1	5	0.265	0	-4.9518	5.099	
40	1	3	0	0	-5.6592	6.3243	
41	1	5	0.265	0	-4.9518	7.5495	
42	1	3	0	0	-5.6592	8.7748	
43	1	5	0.265	0	-4.9518	10	
44	1	5	0.265	0	-5.6592	11.2253	
45	1	3	0	0	-4.9518	12.4505	
46	1	3	0	0	-5.6592	13.6758	
47	1	3	0	0	-4.9518	14.901	
48	1	3	0	0	-5.6592	16.1263	
49	1	3	0	0	-4.9518	17.3515	
50	1	3	0	0	-5.6592	18.5768	
51	1	13	0.15	0	-4.9518	19.802	
52	1	3	-0.115	0	-3.537	0.19798	
53	1	3	0	0	-2.8296	1.4233	
54	1	3	0	0	-3.537	2.6485	
55	1	3	0	0	-2.8296	3.8738	
56	1	5	0.265	0	-3.537	5.099	
57	1	5	0.265	0	-2.8296	6.3243	
58	1	5	0.265	0	-3.537	7.5495	
59	1	5	0.265	0	-2.8296	8.7748	
60	1	3	0	0	-3.537	10	
61	1	3	0	0	-2.8296	11.2253	
62	1	3	0	0	-3.537	12.4505	
63	1	3	0	0	-2.8296	13.6758	
64	1	3	0	0	-3.537	14.901	
65	1	3	0	0	-2.8296	16.1263	
66	1	3	0	0	-3.537	17.3515	
67	1	3	0	0	-2.8296	18.5768	
68	1	3	-0.115	0	-3.537	19.802	
69	1	3	-0.115	0	-0.7074	0.19798	
70	1	3	0	0	-1.4148	1.4233	
71	1	3	0	0	-0.7074	2.6485	
72	1	5	0.265	0	-1.4148	3.8738	
73	1	5	0.265	0	-0.7074	5.099	
74	1	3	0	0	-1.4148	6.3243	
75	1	5	0.265	0	-0.7074	7.5495	
76	1	3	0	0	-1.4148	8.7748	
77	1	3	0	0	-0.7074	10	
78	1	3	0	0	-1.4148	11.2253	
79	1	3	0	0	-0.7074	12.4505	
80	1	3	0	0	-1.4148	13.6758	
81	1	3	0	0	-0.7074	14.901	
82	1	3	0	0	-1.4148	16.1263	
83	1	3	0	0	-0.7074	17.3515	
84	1	3	0	0	-1.4148	18.5768	
85	1	13	0.15	0	-0.7074	19.802	
86	1	3	-0.115	0	0.7074	0.19798	
87	1	3	0	0	1.4148	1.4233	
88	1	5	0.265	0	0.7074	2.6485	
89	1	5	0.265	0	1.4148	3.8738	
90	1	3	0	0	0.7074	5.099	
91	1	3	0	0	1.4148	6.3243	
92	1	5	0.265	0	0.7074	7.5495	
93	1	3	0	0	1.4148	8.7748	
94	1	3	0	0	0.7074	10	
95	1	3	0	0	1.4148	11.2253	
96	1	3	0	0	0.7074	12.4505	
97	1	3	0	0	1.4148	13.6758	
98	1	3	0	0	0.7074	14.901	
99	1	3	0	0	1.4148	16.1263	
100	1	3	0	0	0.7074	17.3515	
101	1	3	0	0	1.4148	18.5768	
102	1	3	-0.115	0	0.7074	19.802	
103	1	13	0.15	0	3.537	0.19798	
104	1	3	0	0	2.8296	1.4233	
105	1	3	0	0	3.537	2.6485	
106	1	3	0	0	2.8296	3.8738	
107	1	5	0.265	0	3.537	5.099	
108	1	5	0.265	0	2.8296	6.3243	
109	1	3	0	0	3.537	7.5495	
110	1	3	0	0	2.8296	8.7748	
111	1	3	0	0	3.537	10	
112	1	3	0	0	2.8296	11.2253	
113	1	3	0	0	3.537	12.4505	
114	1	3	0	0	2.8296	13.6758	
115	1	3	0	0	3.537	14.901	
116	1	3	0	0	2.8296	16.1263	
117	1	3	0	0	3.537	17.3515	
118	1	3	0	0	2.8296	18.5768	
119	1	3	-0.115	0	3.537	19.802	
120	1	13	0.15	0	4.9518	0.19798	
121	1	3	0	0	5.6592	1.4233	
122	1	3	0	0	4.9518	2.6485	
123	1	3	0	0	5.6592	3.8738	
124	1	3	0	0	4.9518	5.099	
125	1	5	0.265	0	5.6592	6.3243	
126	1	5	0.265	0	4.9518	7.5495	
127	1	3	0	0	5.6592	8.7748	
128	1	3	0	0	4.9518	10	
129	1	3	0	0	5.6592	11.2253	
130	1	3	0	0	4.9518	12.4505	
131	1	3	0	0	5.6592	13.6758	
132	1	3	0	0	4.9518	14.901	
133	1	3	0	0	5.6592	16.1263	
134	1	3	0	0	4.9518	17.3515	
135	1	3	0	0	5.6592	18.5768	
136	1	3	-0.115	0	4.9518	19.802	
137	1	3	-0.115	0	7.7814	0.19798	
138	1	3	0	0	7.074	1.4233	
139	1	3	0	0	7.7814	2.6485	
140	1	3	0	0	7.074	3.8738	
141	1	3	0	0	7.7814	5.099	
142	1	3	0	0	7.074	6.3243	
143	1	3	0	0	7.7814	7.5495	
144	1	3	0	0	7.074	8.7748	
145	1	3	0	0	7.7814	10	
146	1	3	0	0	7.074	11.2253	
147	1	3	0	0	7.7814	12.4505	
148	1	3	0	0	7.074	13.6758	
149	1	3	0	0	7.7814	14.901	
150	1	3	0	0	7.074	16.1263	
151	1	3	0	0	7.7814	17.3515	
152	1	3	0	0	7.074	18.5768	
153	1	3	-0.115	0	7.7814	19.802	
154	1	3	-0.115	0	9.1962	0.19798	
155	1	3	-0.115	0	9.9036	1.4233	
156	1	3	0	0	9.1962	2.6485	
157	1	3	-0.115	0	9.9036	3.8738	
158	1	3	0	0	9.1962	5.099	
159	1	3	-0.115	0	9.9036	6.3243	
160	1	3	0	0	9.1962	7.5495	
161	1	3	-0.115	0	9.9036	8.7748	
162	1	3	0	0	9.1962	10	
163	1	3	-0.115	0	9.9036	11.2253	
164	1	3	0	0	9.1962	12.4505	
165	1	13	0.15	0	9.9036	13.6758	
166	1	3	0	0	9.1962	14.901	
167	1	13	0.15	0	9.9036	16.1263	
168	1	3	0	0	9.1962	17.3515	
169	1	3	-0.115	0	9.9036	18.5768	
170	1	13	0.15	0	9.1962	19.802	
171	1	4	0.115	0	-10.9806	1.4233	
172	1	4	0.115	0	-10.9806	3.8738	
173	1	4	0.115	0	-10.9806	6.3243	
174	1	4	0.115	0	-10.9806	8.7748	
175	1	9	-0.585	0	-11.3036	11.2253	
176	1	4	0.115	0	-10.9806	13.6758	
177	1	9	-0.585	0	-11.3036	16.1263	
178	1	4	0.115	0	-10.9806	18.5768	
179	1	4	0.115	0	10.9806	1.4233	
180	1	4	0.115	0	10.9806	3.8738	
181	1	4	0.115	0	10.9806	6.3243	
182	1	4	0.115	0	10.9806	8.7748	
183	1	4	0.115	0	10.9806	11.2253	
184	1	9	-0.585	0	11.3036	13.6758	
185	1	9	-0.585	0	11.3036	16.1263	
186	1	4	0.115	0	10.9806	18.5768	
187	1	4	0.115	0	-9.7347	-0.73473	
188	1	9	-0.585	0	-7.0814	-1.0144	
189	1	4	0.115	0	-9.7347	20.7348	
190	1	4	0.115	0	-7.2429	20.7348	
191	1	9	-0.585	0	-5.6518	-1.0144	
192	1	4	0.115	0	-2.9985	-0.73473	
193	1	9	-0.585	0	-5.6518	21.0145	
194	1	4	0.115	0	-2.9985	20.7348	
195	1	4	0.115	0	-1.2459	-0.73473	
196	1	4	0.115	0	1.2459	-0.73473	
197	1	9	-0.585	0	-1.4074	21.0145	
198	1	4	0.115	0	1.2459	20.7348	
199	1	9	-0.585	0	2.837	-1.0144	
200	1	9	-0.585	0	5.6518	-1.0144	
201	1	4	0.115	0	2.9985	20.7348	
202	1	4	0.115	0	5.4903	20.7348	
203	1	4	0.115	0	7.2429	-0.73473	
204	1	4	0.115	0	9.7347	-0.73473	
205	1	4	0.115	0	7.2429	20.7348	
206	1	9	-0.585	0	9.8962	21.0145	
207	1	7	0.435	-0.7	-12.0036	11.2253	
208	1	7	0.435	-0.7	-12.0036	16.1263	
209	1	7	0.435	-0.7	12.0036	13.6758	
210	1	7	0.435	0.7	12.0036	16.1263	
211	1	7	0.435	-0.7	-6.7314	-1.6207	
212	1	7	0.435	-0.7	-6.0018	-1.6207	
213	1	7	0.435	-0.7	-6.0018	21.6207	
214	1	7	0.435	-0.7	-1.7574	21.6207	
215	1	7	0.435	0.7	2.487	-1.6207	
216	1	7	0.435	0.7	6.0018	-1.6207	
217	1	7	0.435	0.7	10.2462	21.6207	
218	1	6	-0.683	1.4	-4.9518	2.6485	
219	1	7	0.418	2.4	-4.9518	2.6485	
220	1	6	-0.683	-1.4	-5.6592	1.4233	
221	1	7	0.418	-2.4	-5.6592	1.4233	
222	1	6	-0.683	1.4	-5.6592	3.8738	
223	1	7	0.418	2.4	-5.6592	3.8738	
224	1	6	-0.683	-1.4	-1.4148	3.8738	
225	1	7	0.418	-2.4	-1.4148	3.8738	
226	1	6	-0.683	-1.4	-4.9518	5.099	
227	1	7	0.418	-2.4	-4.9518	5.099	
228	1	6	-0.683	1.4	-2.8296	6.3243	
229	1	7	0.418	2.4	-2.8296	6.3243	
230	1	6	-0.683	1.4	0.7074	2.6485	
231	1	7	0.418	2.4	0.7074	2.6485	
232	1	6	-0.683	-1.4	-0.7074	5.099	
233	1	7	0.418	-2.4	-0.7074	5.099	
234	1	6	-0.683	1.4	0.7074	7.5495	
235	1	7	0.418	2.4	0.7074	7.5495	
236	1	6	-0.683	-1.4	1.4148	3.8738	
237	1	7	0.418	-2.4	1.4148	3.8738	
238	1	6	-0.683	1.4	-0.7074	7.5495	
239	1	7	0.418	2.4	-0.7074	7.5495	
240	1	6	-0.683	-1.4	-3.537	7.5495	
241	1	7	0.418	-2.4	-3.537	7.5495	
242	1	6	-0.683	1.4	-4.9518	7.5495	
243	1	7	0.418	2.4	-4.9518	7.5495	
244	1	6	-0.683	-1.4	-4.9518	10	
245	1	7	0.418	-2.4	-4.9518	10	
246	1	6	-0.683	-1.4	-3.537	5.099	
247	1	7	0.418	-2.4	-3.537	5.099	
248	1	6	-0.683	-1.4	2.8296	6.3243	
249	1	7	0.418	-2.4	2.8296	6.3243	
250	1	6	-0.683	1.4	-7.7814	10	
251	1	7	0.418	2.4	-7.7814	10	
252	1	6	-0.683	1.4	3.537	5.099	
253	1	7	0.418	2.4	3.537	5.099	
254	1	6	-0.683	1.4	4.9518	7.5495	
255	1	7	0.418	2.4	4.9518	7.5495	
256	1	6	-0.683	-1.4	-7.074	11.2253	
257	1	7	0.418	-2.4	-7.074	11.2253	
258	1	6	-0.683	1.4	5.6592	6.3243	
259	1	7	0.418	2.4	5.6592	6.3243	
260	1	6	-0.683	1.4	-5.6592	11.2253	
261	1	7	0.418	2.4	-5.6592	11.2253	
262	1	6	-0.683	-1.4	-2.8296	8.7748	
263	1	7	0.418	-2.4	-2.8296	8.7748	
264	2	1	-0.8476	-26.3455	-26.3068	-45.9886	
265	2	2	0.4238	-25.3455	-26.3068	-45.9886	
266	2	2	0.4238	-26.6788	-25.364	-45.9886	
267	3	1	-0.8476	-22.9396	-26.3304	-46.038	
268	3	2	0.4238	-21.9396	-26.3304	-46.038	
269	3	2	0.4238	-23.2729	-25.3876	-46.038	
270	4	1	-0.8476	-19.5173	-26.3949	-46.0271	
271	4	2	0.4238	-18.5173	-26.3949	-46.0271	
272	4	2	0.4238	-19.8506	-25.4521	-46.0271	
273	5	1	-0.8476	-16.1409	-26.3276	-45.9508	
274	5	2	0.4238	-15.1409	-26.3276	-45.9508	
275	5	2	0.4238	-16.4742	-25.3848	-45.9508	
276	6	1	-0.8476	-12.7911	-26.3791	-46.0228	
277	6	2	0.4238	-11.7911	-26.3791	-46.0228	
278	6	2	0.4238	-13.1244	-25.4363	-46.0228	
279	7	1	-0.8476	-9.3175	-26.3484	-46.0224	
280	7	2	0.4238	-8.3175	-26.3484	-46.0224	
281	7	2	0.4238	-9.6508	-25.4056	-46.0224	
282	8	1	-0.8476	-5.9645	-26.3332	-45.9565	
283	8	2	0.4238	-4.9645	-26.3332	-45.9565	
284	8	2	0.4238	-6.2978	-25.3904	-45.9565	
285	9	1	-0.8476	-2.5628	-26.3969	-45.9915	
286	9	2	0.4238	-1.5628	-26.3969	-45.9915	
287	9	2	0.4238	-2.8961	-25.4541	-45.9915	
288	10	1	-0.8476	0.84669	-26.3228	-45.9966	
289	10	2	0.4238	1.8467	-26.3228	-45.9966	
290	10	2	0.4238	0.51338	-25.38	-45.9966	
291	11	1	-0.8476	4.2292	-26.3343	-45.9991	
292	11	2	0.4238	5.2292	-26.3343	-45.9991	
293	11	2	0.4238	3.8959	-25.3915	-45.9991	
294	12	1	-0.8476	7.6026	-26.3219	-46.0218	
295	12	2	0.4238	8.6026	-26.3219	-46.0218	
296	12	2	0.4238	7.2693	-25.3791	-46.0218	
297	13	1	-0.8476	11.0412	-26.3735	-46.0325	
298	13	2	0.4238	12.0412	-26.3735	-46.0325	
299	13	2	0.4238	10.7079	-25.4307	-46.0325	
300	14	1	-0.8476	14.4988	-26.3283	-46.007	
301	14	2	0.4238	15.4988	-26.3283	-46.007	
302	14	2	0.4238	14.1655	-25.3855	-46.007	
303	15	1	-0.8476	17.8508	-26.3598	-46.0454	
304	15	2	0.4238	18.8508	-26.3598	-46.0454	
305	15	2	0.4238	17.5175	-25.417	-46.0454	
306	16	1	-0.8476	21.2722	-26.3173	-46.0259	
307	16	2	0.4238	22.2722	-26.3173	-46.0259	
308	16	2	0.4238	20.9389	-25.3745	-46.0259	
309	17	1	-0.8476	24.6237	-26.364	-46.04	
310	17	2	0.4238	25.6237	-26.364	-46.04	
311	17	2	0.4238	24.2904	-25.4212	-46.04	
312	18	1	-0.8476	-26.3226	-22.9326	-45.9856	
313	18	2	0.4238	-25.3226	-22.9326	-45.9856	
314	18	2	0.4238	-26.6559	-21.9898	-45.9856	
315	19	1	-0.8476	-22.9155	-22.9813	-45.9997	
316	19	2	0.4238	-21.9155	-22.9813	-45.9997	
317	19	2	0.4238	-23.2488	-22.0385	-45.9997	
318	20	1	-0.8476	-19.592	-22.9345	-46.0017	
319	20	2	0.4238	-18.592	-22.9345	-46.0017	
320	20	2	0.4238	-19.9254	-21.9917	-46.0017	
321	21	1	-0.8476	-16.1593	-22.9706	-45.9956	
322	21	2	0.4238	-15.1593	-22.9706	-45.9956	
323	21	2	0.4238	-16.4926	-22.0278	-45.9956	
324	22	1	-0.8476	-12.7704	-22.9345	-45.9639	
325	22	2	0.4238	-11.7704	-22.9345	-45.9639	
326	22	2	0.4238	-13.1037	-21.9917	-45.9639	
327	23	1	-0.8476	-9.3185	-22.9061	-45.994	
328	23	2	0.4238	-8.3185	-22.9061	-45.994	
329	23	2	0.4238	-9.6518	-21.9633	-45.994	
330	24	1	-0.8476	-5.95	-22.9791	-46.0468	
331	24	2	0.4238	-4.95	-22.9791	-46.0468	
332	24	2	0.4238	-6.2833	-22.0363	-46.0468	
333	25	1	-0.8476	-2.5334	-22.9971	-46.0415	
334	25	2	0.4238	-1.5334	-22.9971	-46.0415	
335	25	2	0.4238	-2.8667	-22.0543	-46.0415	
336	26	1	-0.8476	0.81825	-22.905	-45.9895	
337	26	2	0.4238	1.8182	-22.905	-45.9895	
338	26	2	0.4238	0.48494	-21.9622	-45.9895	
339	27	1	-0.8476	4.2082	-22.9368	-46.0225	
340	27	2	0.4238	5.2082	-22.9368	-46.0225	
341	27	2	0.4238	3.8748	-21.994	-46.0225	
342	28	1	-0.8476	7.6684	-22.918	-46.02	
343	28	2	0.4238	8.6684	-22.918	-46.02	
344	28	2	0.4238	7.3351	-21.9752	-46.02	
345	29	1	-0.8476	11.0656	-22.9666	-45.9714	
346	29	2	0.4238	12.0656	-22.9666	-45.9714	
347	29	2	0.4238	10.7323	-22.0238	-45.9714	
348	30	1	-0.8476	14.4251	-22.9261	-45.9785	
349	30	2	0.4238	15.4251	-22.9261	-45.9785	
350	30	2	0.4238	14.0918	-21.9833	-45.9785	
351	31	1	-0.8476	17.8405	-22.9368	-46.004	
352	31	2	0.4238	18.8405	-22.9368	-46.004	
353	31	2	0.4238	17.5072	-21.994	-46.004	
354	32	1	-0.8476	21.2983	-22.9025	-45.9549	
355	32	2	0.4238	22.2983	-22.9025	-45.9549	
356	32	2	0.4238	20.965	-21.9597	-45.9549	
357	33	1	-0.8476	24.69	-22.904	-46.0206	
358	33	2	0.4238	25.69	-22.904	-46.0206	
359	33	2	0.4238	24.3567	-21.9612	-46.0206	
360	34	1	-0.8476	-26.385	-19.5602	-45.9944	
361	34	2	0.4238	-25.385	-19.5602	-45.9944	
362	34	2	0.4238	-26.7184	-18.6174	-45.9944	
363	35	1	-0.8476	-22.9899	-19.5315	-46.0096	
364	35	2	0.4238	-21.9899	-19.5315	-46.0096	
365	35	2	0.4238	-23.3233	-18.5887	-46.0096	
366	36	1	-0.8476	-19.5814	-19.5728	-45.9793	
367	36	2	0.4238	-18.5814	-19.5728	-45.9793	
368	36	2	0.4238	-19.9147	-18.63	-45.9793	
369	37	1	-0.8476	-16.1599	-19.5596	-46.0102	
370	37	2	0.4238	-15.1599	-19.5596	-46.0102	
371	37	2	0.4238	-16.4932	-18.6168	-46.0102	
372	38	1	-0.8476	-12.7882	-19.5977	-45.9565	
373	38	2	0.4238	-11.7882	-19.5977	-45.9565	
374	38	2	0.4238	-13.1215	-18.6549	-45.9565	
375	39	1	-0.8476	-9.3081	-19.588	-46.001	
376	39	2	0.4238	-8.3081	-19.588	-46.001	
377	39	2	0.4238	-9.6414	-18.6452	-46.001	
378	40	1	-0.8476	-5.9053	-19.5889	-45.9838	
379	40	2	0.4238	-4.9053	-19.5889	-45.9838	
380	40	2	0.4238	-6.2386	-18.6461	-45.9838	
381	41	1	-0.8476	-2.552	-19.569	-45.9659	
382	41	2	0.4238	-1.552	-19.569	-45.9659	
383	41	2	0.4238	-2.8853	-18.6262	-45.9659	
384	42	1	-0.8476	0.84858	-19.5775	-46.0399	
385	42	2	0.4238	1.8486	-19.5775	-46.0399	
386	42	2	0.4238	0.51527	-18.6347	-46.0399	
387	43	1	-0.8476	4.2052	-19.5511	-45.9777	
388	43	2	0.4238	5.2052	-19.5511	-45.9777	
389	43	2	0.4238	3.8719	-18.6083	-45.9777	
390	44	1	-0.8476	7.6836	-19.555	-46.0493	
391	44	2	0.4238	8.6836	-19.555	-46.0493	
392	44	2	0.4238	7.3503	-18.6122	-46.0493	
393	45	1	-0.8476	11.0978	-19.5057	-45.9687	
394	45	2	0.4238	12.0978	-19.5057	-45.9687	
395	45	2	0.4238	10.7645	-18.5629	-45.9687	
396	46	1	-0.8476	14.4902	-19.5222	-45.9611	
397	46	2	0.4238	15.4902	-19.5222	-45.9611	
398	46	2	0.4238	14.1569	-18.5794	-45.9611	
399	47	1	-0.8476	17.822	-19.5215	-45.9636	
400	47	2	0.4238	18.822	-19.5215	-45.9636	
401	47	2	0.4238	17.4887	-18.5787	-45.9636	
402	48	1	-0.8476	21.2055	-19.5905	-46.0414	
403	48	2	0.4238	22.2055	-19.5905	-46.0414	
404	48	2	0.4238	20.8722	-18.6477	-46.0414	
405	49	1	-0.8476	24.6615	-19.5183	-45.971	
406	49	2	0.4238	25.6615	-19.5183	-45.971	
407	49	2	0.4238	24.3282	-18.5755	-45.971	
408	50	1	-0.8476	-26.3791	-16.171	-46.0166	
409	50	2	0.4238	-25.3791	-16.171	-46.0166	
410	50	2	0.4238	-26.7124	-15.2282	-46.0166	
411	51	1	-0.8476	-22.9957	-16.1101	-46.039	
412	51	2	0.4238	-21.9957	-16.1101	-46.039	
413	51	2	0.4238	-23.329	-15.1673	-46.039	
414	52	1	-0.8476	-19.5411	-16.1098	-46.0286	
415	52	2	0.4238	-18.5411	-16.1098	-46.0286	
416	52	2	0.4238	-19.8744	-15.167	-46.0286	
417	53	1	-0.8476	-16.1281	-16.1674	-45.9888	
418	53	2	0.4238	-15.1281	-16.1674	-45.9888	
419	53	2	0.4238	-16.4614	-15.2246	-45.9888	
420	54	1	-0.8476	-12.799	-16.1626	-45.9803	
421	54	2	0.4238	-11.799	-16.1626	-45.9803	
422	54	2	0.4238	-13.1323	-15.2198	-45.9803	
423	55	1	-0.8476	-9.3195	-16.1907	-46.0344	
424	55	2	0.4238	-8.3195	-16.1907	-46.0344	
425	55	2	0.4238	-9.6528	-15.2479	-46.0344	
426	56	1	-0.8476	-5.9992	-16.1601	-46.0062	
427	56	2	0.4238	-4.9992	-16.1601	-46.0062	
428	56	2	0.4238	-6.3325	-15.2173	-46.0062	
429	57	1	-0.8476	-2.5867	-16.1947	-46.0422	
430	57	2	0.4238	-1.5867	-16.1947	-46.0422	
431	57	2	0.4238	-2.92	-15.2519	-46.0422	
432	58	1	-0.8476	0.8986	-16.1078	-46.0466	
433	58	2	0.4238	1.8986	-16.1078	-46.0466	
434	58	2	0.4238	0.56529	-15.165	-46.0466	
435	59	1	-0.8476	4.2548	-16.1349	-46.0345	
436	59	2	0.4238	5.2548	-16.1349	-46.0345	
437	59	2	0.4238	3.9214	-15.1921	-46.0345	
438	60	1	-0.8476	7.6766	-16.1956	-45.989	
439	60	2	0.4238	8.6766	-16.1956	-45.989	
440	60	2	0.4238	7.3432	-15.2528	-45.989	
441	61	1	-0.8476	11.0529	-16.1763	-45.9804	
442	61	2	0.4238	12.0529	-16.1763	-45.9804	
443	61	2	0.4238	10.7196	-15.2335	-45.9804	
444	62	1	-0.8476	14.4876	-16.1436	-46.0339	
445	62	2	0.4238	15.4876	-16.1436	-46.0339	
446	62	2	0.4238	14.1543	-15.2008	-46.0339	
447	63	1	-0.8476	17.8488	-16.1162	-45.9609	
448	63	2	0.4238	18.8488	-16.1162	-45.9609	
449	63	2	0.4238	17.5155	-15.1734	-45.9609	
450	64	1	-0.8476	21.2019	-16.1331	-46.0363	
451	64	2	0.4238	22.2019	-16.1331	-46.0363	
452	64	2	0.4238	20.8686	-15.1903	-46.0363	
453	65	1	-0.8476	24.6203	-16.1656	-45.9502	
454	65	2	0.4238	25.6203	-16.1656	-45.9502	
455	65	2	0.4238	24.287	-15.2228	-45.9502	
456	66	1	-0.8476	-26.352	-12.7267	-46.0359	
457	66	2	0.4238	-25.352	-12.7267	-46.0359	
458	66	2	0.4238	-26.6853	-11.7839	-46.0359	
459	67	1	-0.8476	-22.9072	-12.7525	-45.9879	
460	67	2	0.4238	-21.9072	-12.7525	-45.9879	
461	67	2	0.4238	-23.2405	-11.8097	-45.9879	
462	68	1	-0.8476	-19.5327	-12.7945	-46.0058	
463	68	2	0.4238	-18.5327	-12.7945	-46.0058	
464	68	2	0.4238	-19.866	-11.8517	-46.0058	
465	69	1	-0.8476	-16.1752	-12.7378	-45.993	
466	69	2	0.4238	-15.1752	-12.7378	-45.993	
467	69	2	0.4238	-16.5085	-11.795	-45.993	
468	70	1	-0.8476	-12.7976	-12.763	-45.9868	
469	70	2	0.4238	-11.7976	-12.763	-45.9868	
470	70	2	0.4238	-13.1309	-11.8202	-45.9868	
471	71	1	-0.8476	-9.3639	-12.7077	-46.0198	
472	71	2	0.4238	-8.3639	-12.7077	-46.0198	
473	71	2	0.4238	-9.6972	-11.7649	-46.0198	
474	72	1	-0.8476	-5.9853	-12.7942	-45.997	
475	72	2	0.4238	-4.9853	-12.7942	-45.997	
476	72	2	0.4238	-6.3186	-11.8514	-45.997	
477	73	1	-0.8476	-2.5345	-12.7023	-46.0022	
478	73	2	0.4238	-1.5345	-12.7023	-46.0022	
479	73	2	0.4238	-2.8678	-11.7595	-46.0022	
480	74	1	-0.8476	0.8203	-12.7028	-46.0041	
481	74	2	0.4238	1.8203	-12.7028	-46.0041	
482	74	2	0.4238	0.48699	-11.76	-46.0041	
483	75	1	-0.8476	4.2714	-12.7228	-45.9887	
484	75	2	0.4238	5.2714	-12.7228	-45.9887	
485	75	2	0.4238	3.9381	-11.78	-45.9887	
486	76	1	-0.8476	7.66	-12.7249	-46.0149	
487	76	2	0.4238	8.66	-12.7249	-46.0149	
488	76	2	0.4238	7.3266	-11.7821	-46.0149	
489	77	1	-0.8476	11.0097	-12.7936	-45.9999	
490	77	2	0.4238	12.0097	-12.7936	-45.9999	
491	77	2	0.4238	10.6764	-11.8508	-45.9999	
492	78	1	-0.8476	14.4594	-12.7267	-46.0201	
493	78	2	0.4238	15.4594	-12.7267	-46.0201	
494	78	2	0.4238	14.1261	-11.7839	-46.0201	
495	79	1	-0.8476	17.8116	-12.7385	-45.9854	
496	79	2	0.4238	18.8116	-12.7385	-45.9854	
497	79	2	0.4238	17.4783	-11.7957	-45.9854	
498	80	1	-0.8476	21.287	-12.7334	-45.9911	
499	80	2	0.4238	22.287	-12.7334	-45.9911	
500	80	2	0.4238	20.9537	-11.7906	-45.9911	
501	81	1	-0.8476	24.6234	-12.7727	-45.9672	
502	81	2	0.4238	25.6234	-12.7727	-45.9672	
503	81	2	0.4238	24.2901	-11.8299	-45.9672	
504	82	1	-0.8476	-26.346	-9.3272	-45.9796	
505	82	2	0.4238	-25.346	-9.3272	-45.9796	
506	82	2	0.4238	-26.6793	-8.3844	-45.9796	
507	83	1	-0.8476	-22.9437	-9.3234	-45.9912	
508	83	2	0.4238	-21.9437	-9.3234	-45.9912	
509	83	2	0.4238	-23.277	-8.3806	-45.9912	
510	84	1	-0.8476	-19.5794	-9.3705	-46.033	
511	84	2	0.4238	-18.5794	-9.3705	-46.033	
512	84	2	0.4238	-19.9127	-8.4277	-46.033	
513	85	1	-0.8476	-16.1821	-9.3822	-46.0093	
514	85	2	0.4238	-15.1821	-9.3822	-46.0093	
515	85	2	0.4238	-16.5154	-8.4394	-46.0093	
516	86	1	-0.8476	-12.7364	-9.321	-45.9708	
517	86	2	0.4238	-11.7364	-9.321	-45.9708	
518	86	2	0.4238	-13.0697	-8.3782	-45.9708	
519	87	1	-0.8476	-9.3649	-9.3334	-46.0122	
520	87	2	0.4238	-8.3649	-9.3334	-46.0122	
521	87	2	0.4238	-9.6982	-8.3906	-46.0122	
522	88	1	-0.8476	-5.9302	-9.3485	-46.0223	
523	88	2	0.4238	-4.9302	-9.3485	-46.0223	
524	88	2	0.4238	-6.2635	-8.4057	-46.0223	
525	89	1	-0.8476	-2.5228	-9.3097	-45.9676	
526	89	2	0.4238	-1.5228	-9.3097	-45.9676	
527	89	2	0.4238	-2.8561	-8.3669	-45.9676	
528	90	1	-0.8476	0.81699	-9.3041	-46.0256	
529	90	2	0.4238	1.817	-9.3041	-46.0256	
530	90	2	0.4238	0.48368	-8.3613	-46.0256	
531	91	1	-0.8476	4.2225	-9.3956	-45.9966	
532	91	2	0.4238	5.2225	-9.3956	-45.9966	
533	91	2	0.4238	3.8891	-8.4528	-45.9966	
534	92	1	-0.8476	7.6529	-9.3374	-45.9801	
535	92	2	0.4238	8.6529	-9.3374	-45.9801	
536	92	2	0.4238	7.3196	-8.3946	-45.9801	
537	93	1	-0.8476	11.0723	-9.3183	-45.9588	
538	93	2	0.4238	12.0723	-9.3183	-45.9588	
539	93	2	0.4238	10.7389	-8.3755	-45.9588	
540	94	1	-0.8476	14.4516	-9.3022	-46.0028	
541	94	2	0.4238	15.4516	-9.3022	-46.0028	
542	94	2	0.4238	14.1183	-8.3594	-46.0028	
543	95	1	-0.8476	17.8364	-9.3714	-46.0245	
544	95	2	0.4238	18.8364	-9.3714	-46.0245	
545	95	2	0.4238	17.5031	-8.4286	-46.0245	
546	96	1	-0.8476	21.2417	-9.3867	-45.953	
547	96	2	0.4238	22.2417	-9.3867	-45.953	
548	96	2	0.4238	20.9084	-8.4439	-45.953	
549	97	1	-0.8476	24.6625	-9.3616	-46.047	
550	97	2	0.4238	25.6625	-9.3616	-46.047	
551	97	2	0.4238	24.3292	-8.4188	-46.047	
552	98	1	-0.8476	-26.3462	-5.9577	-45.9741	
553	98	2	0.4238	-25.3462	-5.9577	-45.9741	
554	98	2	0.4238	-26.6795	-5.0149	-45.9741	
555	99	1	-0.8476	-22.9028	-5.9633	-46.0105	
556	99	2	0.4238	-21.9028	-5.9633	-46.0105	
557	99	2	0.4238	-23.2361	-5.0205	-46.0105	
558	100	1	-0.8476	-19.5157	-5.9618	-46.0444	
559	100	2	0.4238	-18.5157	-5.9618	-46.0444	
560	100	2	0.4238	-19.849	-5.019	-46.0444	
561	101	1	-0.8476	-16.1067	-5.9552	-45.961	
562	101	2	0.4238	-15.1067	-5.9552	-45.961	
563	101	2	0.4238	-16.44	-5.0124	-45.961	
564	102	1	-0.8476	-12.7301	-5.9182	-45.9684	
565	102	2	0.4238	-11.7301	-5.9182	-45.9684	
566	102	2	0.4238	-13.0634	-4.9754	-45.9684	
567	103	1	-0.8476	-9.3568	-5.9051	-46.0101	
568	103	2	0.4238	-8.3568	-5.9051	-46.0101	
569	103	2	0.4238	-9.6901	-4.9623	-46.0101	
570	104	1	-0.8476	-5.9189	-5.9174	-45.9591	
571	104	2	0.4238	-4.9189	-5.9174	-45.9591	
572	104	2	0.4238	-6.2522	-4.9746	-45.9591	
573	105	1	-0.8476	-2.5777	-5.9707	-45.9774	
574	105	2	0.4238	-1.5777	-5.9707	-45.9774	
575	105	2	0.4238	-2.911	-5.0279	-45.9774	
576	106	1	-0.8476	0.87416	-5.9938	-46.0475	
577	106	2	0.4238	1.8742	-5.9938	-46.0475	
578	106	2	0.4238	0.54085	-5.051	-46.0475	
579	107	1	-0.8476	4.2691	-5.9728	-46.0088	
580	107	2	0.4238	5.2691	-5.9728	-46.0088	
581	107	2	0.4238	3.9358	-5.03	-46.0088	
582	108	1	-0.8476	7.6615	-5.9207	-45.9997	
583	108	2	0.4238	8.6615	-5.9207	-45.9997	
584	108	2	0.4238	7.3282	-4.9779	-45.9997	
585	109	1	-0.8476	11.0567	-5.9284	-46.0042	
586	109	2	0.4238	12.0567	-5.9284	-46.0042	
587	109	2	0.4238	10.7234	-4.9856	-46.0042	
588	110	1	-0.8476	14.4639	-5.9137	-46.0096	
589	110	2	0.4238	15.4639	-5.9137	-46.0096	
590	110	2	0.4238	14.1306	-4.9709	-46.0096	
591	111	1	-0.8476	17.8976	-5.9342	-45.969	
592	111	2	0.4238	18.8976	-5.9342	-45.969	
593	111	2	0.4238	17.5643	-4.9914	-45.969	
594	112	1	-0.8476	21.2065	-5.9386	-45.9591	
595	112	2	0.4238	22.2065	-5.9386	-45.9591	
596	112	2	0.4238	20.8732	-4.9958	-45.9591	
597	113	1	-0.8476	24.6561	-5.9049	-45.9813	
598	113	2	0.4238	25.6561	-5.9049	-45.9813	
599	113	2	0.4238	24.3228	-4.9621	-45.9813	
600	114	1	-0.8476	-26.3346	-2.5003	-45.955	
601	114	2	0.4238	-25.3346	-2.5003	-45.955	
602	114	2	0.4238	-26.6679	-1.5575	-45.955	
603	115	1	-0.8476	-22.9075	-2.5201	-45.9915	
604	115	2	0.4238	-21.9075	-2.5201	-45.9915	
605	115	2	0.4238	-23.2408	-1.5773	-45.9915	
606	116	1	-0.8476	-19.5407	-2.5827	-46.0214	
607	116	2	0.4238	-18.5407	-2.5827	-46.0214	
608	116	2	0.4238	-19.874	-1.6399	-46.0214	
609	117	1	-0.8476	-16.1935	-2.5855	-46.0327	
610	117	2	0.4238	-15.1935	-2.5855	-46.0327	
611	117	2	0.4238	-16.5269	-1.6427	-46.0327	
612	118	1	-0.8476	-12.7714	-2.525	-46.0404	
613	118	2	0.4238	-11.7714	-2.525	-46.0404	
614	118	2	0.4238	-13.1047	-1.5822	-46.0404	
615	119	1	-0.8476	-9.3011	-2.5445	-45.9817	
616	119	2	0.4238	-8.3011	-2.5445	-45.9817	
617	119	2	0.4238	-9.6344	-1.6017	-45.9817	
618	120	1	-0.8476	-5.9167	-2.5648	-46.0153	
619	120	2	0.4238	-4.9167	-2.5648	-46.0153	
620	120	2	0.4238	-6.25	-1.622	-46.0153	
621	121	1	-0.8476	-2.5134	-2.5404	-45.9633	
622	121	2	0.4238	-1.5134	-2.5404	-45.9633	
623	121	2	0.4238	-2.8467	-1.5976	-45.9633	
624	122	1	-0.8476	0.80258	-2.528	-45.9864	
625	122	2	0.4238	1.8026	-2.528	-45.9864	
626	122	2	0.4238	0.46927	-1.5852	-45.9864	
627	123	1	-0.8476	4.2976	-2.5415	-46.0266	
628	123	2	0.4238	5.2976	-2.5415	-46.0266	
629	123	2	0.4238	3.9643	-1.5987	-46.0266	
630	124	1	-0.8476	7.624	-2.5745	-46.0102	
631	124	2	0.4238	8.624	-2.5745	-46.0102	
632	124	2	0.4238	7.2906	-1.6317	-46.0102	
633	125	1	-0.8476	11.0265	-2.558	-46.0429	
634	125	2	0.4238	12.0265	-2.558	-46.0429	
635	125	2	0.4238	10.6932	-1.6152	-46.0429	
636	126	1	-0.8476	14.472	-2.5416	-45.9923	
637	126	2	0.4238	15.472	-2.5416	-45.9923	
638	126	2	0.4238	14.1387	-1.5988	-45.9923	
639	127	1	-0.8476	17.8014	-2.5859	-45.9948	
640	127	2	0.4238	18.8014	-2.5859	-45.9948	
641	127	2	0.4238	17.4681	-1.6431	-45.9948	
642	128	1	-0.8476	21.2642	-2.5331	-45.9868	
643	128	2	0.4238	22.2642	-2.5331	-45.9868	
644	128	2	0.4238	20.9309	-1.5903	-45.9868	
645	129	1	-0.8476	24.6495	-2.5418	-45.9811	
646	129	2	0.4238	25.6495	-2.5418	-45.9811	
647	129	2	0.4238	24.3162	-1.599	-45.9811	
648	130	1	-0.8476	-26.3816	0.86697	-45.9761	
649	130	2	0.4238	-25.3816	0.86697	-45.9761	
650	130	2	0.4238	-26.7149	1.8098	-45.9761	
651	131	1	-0.8476	-22.9911	0.83456	-46.0016	
652	131	2	0.4238	-21.9911	0.83456	-46.0016	
653	131	2	0.4238	-23.3244	1.7774	-46.0016	
654	132	1	-0.8476	-19.5174	0.88081	-46.0111	
655	132	2	0.4238	-18.5174	0.88081	-46.0111	
656	132	2	0.4238	-19.8507	1.8236	-46.0111	
657	133	1	-0.8476	-16.1241	0.85406	-45.9983	
658	133	2	0.4238	-15.1241	0.85406	-45.9983	
659	133	2	0.4238	-16.4574	1.7969	-45.9983	
660	134	1	-0.8476	-12.7485	0.8903	-46.0003	
661	134	2	0.4238	-11.7485	0.8903	-46.0003	
662	134	2	0.4238	-13.0818	1.8331	-46.0003	
663	135	1	-0.8476	-9.3861	0.89531	-46.0486	
664	135	2	0.4238	-8.3861	0.89531	-46.0486	
665	135	2	0.4238	-9.7194	1.8381	-46.0486	
666	136	1	-0.8476	-5.9403	0.85021	-46.0153	
667	136	2	0.4238	-4.9403	0.85021	-46.0153	
668	136	2	0.4238	-6.2737	1.793	-46.0153	
669	137	1	-0.8476	-2.596	0.8194	-46.0214	
670	137	2	0.4238	-1.596	0.8194	-46.0214	
671	137	2	0.4238	-2.9293	1.7622	-46.0214	
672	138	1	-0.8476	0.80073	0.8852	-46.0142	
673	138	2	0.4238	1.8007	0.8852	-46.0142	
674	138	2	0.4238	0.46742	1.828	-46.0142	
675	139	1	-0.8476	4.221	0.88617	-45.9886	
676	139	2	0.4238	5.221	0.88617	-45.9886	
677	139	2	0.4238	3.8877	1.829	-45.9886	
678	140	1	-0.8476	7.6458	0.85055	-45.9953	
679	140	2	0.4238	8.6458	0.85055	-45.9953	
680	140	2	0.4238	7.3125	1.7934	-45.9953	
681	141	1	-0.8476	11.0142	0.80808	-45.9853	
682	141	2	0.4238	12.0142	0.80808	-45.9853	
683	141	2	0.4238	10.6809	1.7509	-45.9853	
684	142	1	-0.8476	14.4704	0.80785	-46.0277	
685	142	2	0.4238	15.4704	0.80785	-46.0277	
686	142	2	0.4238	14.1371	1.7507	-46.0277	
687	143	1	-0.8476	17.884	0.87603	-46.0248	
688	143	2	0.4238	18.884	0.87603	-46.0248	
689	143	2	0.4238	17.5507	1.8188	-46.0248	
690	144	1	-0.8476	21.2791	0.85012	-46.0082	
691	144	2	0.4238	22.2791	0.85012	-46.0082	
692	144	2	0.4238	20.9458	1.7929	-46.0082	
693	145	1	-0.8476	24.6221	0.84738	-46.0057	
694	145	2	0.4238	25.6221	0.84738	-46.0057	
695	145	2	0.4238	24.2888	1.7902	-46.0057	
696	146	1	-0.8476	-26.3719	4.2303	-45.9568	
697	146	2	0.4238	-25.3719	4.2303	-45.9568	
698	146	2	0.4238	-26.7052	5.1731	-45.9568	
699	147	1	-0.8476	-22.921	4.2578	-45.975	
700	147	2	0.4238	-21.921	4.2578	-45.975	
701	147	2	0.4238	-23.2543	5.2006	-45.975	
702	148	1	-0.8476	-19.5279	4.2953	-46.009	
703	148	2	0.4238	-18.5279	4.2953	-46.009	
704	148	2	0.4238	-19.8612	5.2381	-46.009	
705	149	1	-0.8476	-16.104	4.2852	-45.9986	
706	149	2	0.4238	-15.104	4.2852	-45.9986	
707	149	2	0.4238	-16.4374	5.228	-45.9986	
708	150	1	-0.8476	-12.7357	4.2301	-45.9597	
709	150	2	0.4238	-11.7357	4.2301	-45.9597	
710	150	2	0.4238	-13.069	5.1729	-45.9597	
711	151	1	-0.8476	-9.3936	4.286	-46.0013	
712	151	2	0.4238	-8.3936	4.286	-46.0013	
713	151	2	0.4238	-9.7269	5.2288	-46.0013	
714	152	1	-0.8476	-5.9777	4.2225	-46.0262	
715	152	2	0.4238	-4.9777	4.2225	-46.0262	
716	152	2	0.4238	-6.311	5.1653	-46.0262	
717	153	1	-0.8476	-2.5853	4.2431	-45.954	
718	153	2	0.4238	-1.5853	4.2431	-45.954	
719	153	2	0.4238	-2.9186	5.1859	-45.954	
720	154	1	-0.8476	0.84652	4.2384	-45.9762	
721	154	2	0.4238	1.8465	4.2384	-45.9762	
722	154	2	0.4238	0.51321	5.1812	-45.9762	
723	155	1	-0.8476	4.202	4.2202	-45.972	
724	155	2	0.4238	5.202	4.2202	-45.972	
725	155	2	0.4238	3.8687	5.163	-45.972	
726	156	1	-0.8476	7.6067	4.2969	-45.986	
727	156	2	0.4238	8.6067	4.2969	-45.986	
728	156	2	0.4238	7.2734	5.2397	-45.986	
729	157	1	-0.8476	11.0324	4.2003	-45.958	
730	157	2	0.4238	12.0324	4.2003	-45.958	
731	157	2	0.4238	10.6991	5.1431	-45.958	
732	158	1	-0.8476	14.4427	4.2959	-45.9947	
733	158	2	0.4238	15.4427	4.2959	-45.9947	
734	158	2	0.4238	14.1094	5.2387	-45.9947	
735	159	1	-0.8476	17.8171	4.2957	-46.0041	
736	159	2	0.4238	18.8171	4.2957	-46.0041	
737	159	2	0.4238	17.4838	5.2385	-46.0041	
738	160	1	-0.8476	21.2658	4.2188	-45.9893	
739	160	2	0.4238	22.2658	4.2188	-45.9893	
740	160	2	0.4238	20.9325	5.1616	-45.9893	
741	161	1	-0.8476	24.6791	4.2323	-46.0484	
742	161	2	0.4238	25.6791	4.2323	-46.0484	
743	161	2	0.4238	24.3458	5.1751	-46.0484	
744	162	1	-0.8476	-26.3511	7.6254	-46.0351	
745	162	2	0.4238	-25.3511	7.6254	-46.0351	
746	162	2	0.4238	-26.6844	8.5682	-46.0351	
747	163	1	-0.8476	-22.9693	7.6831	-45.9853	
748	163	2	0.4238	-21.9693	7.6831	-45.9853	
749	163	2	0.4238	-23.3026	8.6259	-45.9853	
750	164	1	-0.8476	-19.5872	7.6347	-45.9984	
751	164	2	0.4238	-18.5872	7.6347	-45.9984	
752	164	2	0.4238	-19.9205	8.5775	-45.9984	
753	165	1	-0.8476	-16.1414	7.6016	-45.9816	
754	165	2	0.4238	-15.1414	7.6016	-45.9816	
755	165	2	0.4238	-16.4747	8.5444	-45.9816	
756	166	1	-0.8476	-12.789	7.6308	-46.0274	
757	166	2	0.4238	-11.789	7.6308	-46.0274	
758	166	2	0.4238	-13.1223	8.5736	-46.0274	
759	167	1	-0.8476	-9.3292	7.6364	-46.0244	
760	167	2	0.4238	-8.3292	7.6364	-46.0244	
761	167	2	0.4238	-9.6625	8.5792	-46.0244	
762	168	1	-0.8476	-5.9303	7.6402	-46.0279	
763	168	2	0.4238	-4.9303	7.6402	-46.0279	
764	168	2	0.4238	-6.2636	8.583	-46.0279	
765	169	1	-0.8476	-2.5941	7.6945	-45.9736	
766	169	2	0.4238	-1.5941	7.6945	-45.9736	
767	169	2	0.4238	-2.9274	8.6373	-45.9736	
768	170	1	-0.8476	0.80948	7.6131	-45.957	
769	170	2	0.4238	1.8095	7.6131	-45.957	
770	170	2	0.4238	0.47617	8.5559	-45.957	
771	171	1	-0.8476	4.2983	7.6046	-46.0467	