# System

13763 atoms
9330 bonds
5113 angles
1193 dihedrals
147 impropers

15 atom types
8 bond types
14 angle types
15 dihedral types
1 improper types
extra bond per atom 2
extra angle per atom 1
extra special per atom 2
-27.2         27.2 xlo xhi
-27.2         27.2 ylo yhi
-50  50 zlo zhi

Atoms

1	1	3	-0.115	0	-9.1962	4.198	
2	1	3	-0.115	0	-9.9036	5.4233	
3	1	3	0	0	-9.1962	6.6485	
4	1	3	-0.115	0	-9.9036	7.8738	
5	1	3	0	0	-9.1962	9.099	
6	1	3	-0.115	0	-9.9036	10.3243	
7	1	3	0	0	-9.1962	11.5495	
8	1	3	-0.115	0	-9.9036	12.7748	
9	1	3	0	0	-9.1962	14	
10	1	13	0.15	0	-9.9036	15.2253	
11	1	3	0	0	-9.1962	16.4505	
12	1	3	-0.115	0	-9.9036	17.6758	
13	1	3	0	0	-9.1962	18.901	
14	1	13	0.15	0	-9.9036	20.1263	
15	1	3	0	0	-9.1962	21.3515	
16	1	3	-0.115	0	-9.9036	22.5768	
17	1	3	-0.115	0	-9.1962	23.802	
18	1	13	0.15	0	-7.7814	4.198	
19	1	3	0	0	-7.074	5.4233	
20	1	3	0	0	-7.7814	6.6485	
21	1	3	0	0	-7.074	7.8738	
22	1	3	0	0	-7.7814	9.099	
23	1	3	0	0	-7.074	10.3243	
24	1	3	0	0	-7.7814	11.5495	
25	1	3	0	0	-7.074	12.7748	
26	1	5	0.265	0	-7.7814	14	
27	1	5	0.265	0	-7.074	15.2253	
28	1	3	0	0	-7.7814	16.4505	
29	1	3	0	0	-7.074	17.6758	
30	1	3	0	0	-7.7814	18.901	
31	1	3	0	0	-7.074	20.1263	
32	1	3	0	0	-7.7814	21.3515	
33	1	3	0	0	-7.074	22.5768	
34	1	3	-0.115	0	-7.7814	23.802	
35	1	13	0.15	0	-4.9518	4.198	
36	1	5	0.265	0	-5.6592	5.4233	
37	1	5	0.265	0	-4.9518	6.6485	
38	1	5	0.265	0	-5.6592	7.8738	
39	1	5	0.265	0	-4.9518	9.099	
40	1	3	0	0	-5.6592	10.3243	
41	1	5	0.265	0	-4.9518	11.5495	
42	1	3	0	0	-5.6592	12.7748	
43	1	5	0.265	0	-4.9518	14	
44	1	5	0.265	0	-5.6592	15.2253	
45	1	3	0	0	-4.9518	16.4505	
46	1	3	0	0	-5.6592	17.6758	
47	1	3	0	0	-4.9518	18.901	
48	1	3	0	0	-5.6592	20.1263	
49	1	3	0	0	-4.9518	21.3515	
50	1	3	0	0	-5.6592	22.5768	
51	1	13	0.15	0	-4.9518	23.802	
52	1	3	-0.115	0	-3.537	4.198	
53	1	3	0	0	-2.8296	5.4233	
54	1	3	0	0	-3.537	6.6485	
55	1	3	0	0	-2.8296	7.8738	
56	1	5	0.265	0	-3.537	9.099	
57	1	5	0.265	0	-2.8296	10.3243	
58	1	5	0.265	0	-3.537	11.5495	
59	1	5	0.265	0	-2.8296	12.7748	
60	1	3	0	0	-3.537	14	
61	1	3	0	0	-2.8296	15.2253	
62	1	3	0	0	-3.537	16.4505	
63	1	3	0	0	-2.8296	17.6758	
64	1	3	0	0	-3.537	18.901	
65	1	3	0	0	-2.8296	20.1263	
66	1	3	0	0	-3.537	21.3515	
67	1	3	0	0	-2.8296	22.5768	
68	1	3	-0.115	0	-3.537	23.802	
69	1	3	-0.115	0	-0.7074	4.198	
70	1	3	0	0	-1.4148	5.4233	
71	1	3	0	0	-0.7074	6.6485	
72	1	5	0.265	0	-1.4148	7.8738	
73	1	5	0.265	0	-0.7074	9.099	
74	1	3	0	0	-1.4148	10.3243	
75	1	5	0.265	0	-0.7074	11.5495	
76	1	3	0	0	-1.4148	12.7748	
77	1	3	0	0	-0.7074	14	
78	1	3	0	0	-1.4148	15.2253	
79	1	3	0	0	-0.7074	16.4505	
80	1	3	0	0	-1.4148	17.6758	
81	1	3	0	0	-0.7074	18.901	
82	1	3	0	0	-1.4148	20.1263	
83	1	3	0	0	-0.7074	21.3515	
84	1	3	0	0	-1.4148	22.5768	
85	1	13	0.15	0	-0.7074	23.802	
86	1	3	-0.115	0	0.7074	4.198	
87	1	3	0	0	1.4148	5.4233	
88	1	5	0.265	0	0.7074	6.6485	
89	1	5	0.265	0	1.4148	7.8738	
90	1	3	0	0	0.7074	9.099	
91	1	3	0	0	1.4148	10.3243	
92	1	5	0.265	0	0.7074	11.5495	
93	1	3	0	0	1.4148	12.7748	
94	1	3	0	0	0.7074	14	
95	1	3	0	0	1.4148	15.2253	
96	1	3	0	0	0.7074	16.4505	
97	1	3	0	0	1.4148	17.6758	
98	1	3	0	0	0.7074	18.901	
99	1	3	0	0	1.4148	20.1263	
100	1	3	0	0	0.7074	21.3515	
101	1	3	0	0	1.4148	22.5768	
102	1	3	-0.115	0	0.7074	23.802	
103	1	13	0.15	0	3.537	4.198	
104	1	3	0	0	2.8296	5.4233	
105	1	3	0	0	3.537	6.6485	
106	1	3	0	0	2.8296	7.8738	
107	1	5	0.265	0	3.537	9.099	
108	1	5	0.265	0	2.8296	10.3243	
109	1	3	0	0	3.537	11.5495	
110	1	3	0	0	2.8296	12.7748	
111	1	3	0	0	3.537	14	
112	1	3	0	0	2.8296	15.2253	
113	1	3	0	0	3.537	16.4505	
114	1	3	0	0	2.8296	17.6758	
115	1	3	0	0	3.537	18.901	
116	1	3	0	0	2.8296	20.1263	
117	1	3	0	0	3.537	21.3515	
118	1	3	0	0	2.8296	22.5768	
119	1	3	-0.115	0	3.537	23.802	
120	1	13	0.15	0	4.9518	4.198	
121	1	3	0	0	5.6592	5.4233	
122	1	3	0	0	4.9518	6.6485	
123	1	3	0	0	5.6592	7.8738	
124	1	3	0	0	4.9518	9.099	
125	1	5	0.265	0	5.6592	10.3243	
126	1	5	0.265	0	4.9518	11.5495	
127	1	3	0	0	5.6592	12.7748	
128	1	3	0	0	4.9518	14	
129	1	3	0	0	5.6592	15.2253	
130	1	3	0	0	4.9518	16.4505	
131	1	3	0	0	5.6592	17.6758	
132	1	3	0	0	4.9518	18.901	
133	1	3	0	0	5.6592	20.1263	
134	1	3	0	0	4.9518	21.3515	
135	1	3	0	0	5.6592	22.5768	
136	1	3	-0.115	0	4.9518	23.802	
137	1	3	-0.115	0	7.7814	4.198	
138	1	3	0	0	7.074	5.4233	
139	1	3	0	0	7.7814	6.6485	
140	1	3	0	0	7.074	7.8738	
141	1	3	0	0	7.7814	9.099	
142	1	3	0	0	7.074	10.3243	
143	1	3	0	0	7.7814	11.5495	
144	1	3	0	0	7.074	12.7748	
145	1	3	0	0	7.7814	14	
146	1	3	0	0	7.074	15.2253	
147	1	3	0	0	7.7814	16.4505	
148	1	3	0	0	7.074	17.6758	
149	1	3	0	0	7.7814	18.901	
150	1	3	0	0	7.074	20.1263	
151	1	3	0	0	7.7814	21.3515	
152	1	3	0	0	7.074	22.5768	
153	1	3	-0.115	0	7.7814	23.802	
154	1	3	-0.115	0	9.1962	4.198	
155	1	3	-0.115	0	9.9036	5.4233	
156	1	3	0	0	9.1962	6.6485	
157	1	3	-0.115	0	9.9036	7.8738	
158	1	3	0	0	9.1962	9.099	
159	1	3	-0.115	0	9.9036	10.3243	
160	1	3	0	0	9.1962	11.5495	
161	1	3	-0.115	0	9.9036	12.7748	
162	1	3	0	0	9.1962	14	
163	1	3	-0.115	0	9.9036	15.2253	
164	1	3	0	0	9.1962	16.4505	
165	1	13	0.15	0	9.9036	17.6758	
166	1	3	0	0	9.1962	18.901	
167	1	13	0.15	0	9.9036	20.1263	
168	1	3	0	0	9.1962	21.3515	
169	1	3	-0.115	0	9.9036	22.5768	
170	1	13	0.15	0	9.1962	23.802	
171	1	4	0.115	0	-10.9806	5.4233	
172	1	4	0.115	0	-10.9806	7.8738	
173	1	4	0.115	0	-10.9806	10.3243	
174	1	4	0.115	0	-10.9806	12.7748	
175	1	9	-0.585	0	-11.3036	15.2253	
176	1	4	0.115	0	-10.9806	17.6758	
177	1	9	-0.585	0	-11.3036	20.1263	
178	1	4	0.115	0	-10.9806	22.5768	
179	1	4	0.115	0	10.9806	5.4233	
180	1	4	0.115	0	10.9806	7.8738	
181	1	4	0.115	0	10.9806	10.3243	
182	1	4	0.115	0	10.9806	12.7748	
183	1	4	0.115	0	10.9806	15.2253	
184	1	9	-0.585	0	11.3036	17.6758	
185	1	9	-0.585	0	11.3036	20.1263	
186	1	4	0.115	0	10.9806	22.5768	
187	1	4	0.115	0	-9.7347	3.2653	
188	1	9	-0.585	0	-7.0814	2.9856	
189	1	4	0.115	0	-9.7347	24.7348	
190	1	4	0.115	0	-7.2429	24.7348	
191	1	9	-0.585	0	-5.6518	2.9856	
192	1	4	0.115	0	-2.9985	3.2653	
193	1	9	-0.585	0	-5.6518	25.0145	
194	1	4	0.115	0	-2.9985	24.7348	
195	1	4	0.115	0	-1.2459	3.2653	
196	1	4	0.115	0	1.2459	3.2653	
197	1	9	-0.585	0	-1.4074	25.0145	
198	1	4	0.115	0	1.2459	24.7348	
199	1	9	-0.585	0	2.837	2.9856	
200	1	9	-0.585	0	5.6518	2.9856	
201	1	4	0.115	0	2.9985	24.7348	
202	1	4	0.115	0	5.4903	24.7348	
203	1	4	0.115	0	7.2429	3.2653	
204	1	4	0.115	0	9.7347	3.2653	
205	1	4	0.115	0	7.2429	24.7348	
206	1	9	-0.585	0	9.8962	25.0145	
207	1	7	0.435	-0.7	-12.0036	15.2253	
208	1	7	0.435	-0.7	-12.0036	20.1263	
209	1	7	0.435	-0.7	12.0036	17.6758	
210	1	7	0.435	0.7	12.0036	20.1263	
211	1	7	0.435	-0.7	-6.7314	2.3793	
212	1	7	0.435	-0.7	-6.0018	2.3793	
213	1	7	0.435	-0.7	-6.0018	25.6207	
214	1	7	0.435	-0.7	-1.7574	25.6207	
215	1	7	0.435	0.7	2.487	2.3793	
216	1	7	0.435	0.7	6.0018	2.3793	
217	1	7	0.435	0.7	10.2462	25.6207	
218	1	6	-0.683	1.4	-4.9518	6.6485	
219	1	7	0.418	2.4	-4.9518	6.6485	
220	1	6	-0.683	-1.4	-5.6592	5.4233	
221	1	7	0.418	-2.4	-5.6592	5.4233	
222	1	6	-0.683	1.4	-5.6592	7.8738	
223	1	7	0.418	2.4	-5.6592	7.8738	
224	1	6	-0.683	-1.4	-1.4148	7.8738	
225	1	7	0.418	-2.4	-1.4148	7.8738	
226	1	6	-0.683	-1.4	-4.9518	9.099	
227	1	7	0.418	-2.4	-4.9518	9.099	
228	1	6	-0.683	1.4	-2.8296	10.3243	
229	1	7	0.418	2.4	-2.8296	10.3243	
230	1	6	-0.683	1.4	0.7074	6.6485	
231	1	7	0.418	2.4	0.7074	6.6485	
232	1	6	-0.683	-1.4	-0.7074	9.099	
233	1	7	0.418	-2.4	-0.7074	9.099	
234	1	6	-0.683	1.4	0.7074	11.5495	
235	1	7	0.418	2.4	0.7074	11.5495	
236	1	6	-0.683	-1.4	1.4148	7.8738	
237	1	7	0.418	-2.4	1.4148	7.8738	
238	1	6	-0.683	1.4	-0.7074	11.5495	
239	1	7	0.418	2.4	-0.7074	11.5495	
240	1	6	-0.683	-1.4	-3.537	11.5495	
241	1	7	0.418	-2.4	-3.537	11.5495	
242	1	6	-0.683	1.4	-4.9518	11.5495	
243	1	7	0.418	2.4	-4.9518	11.5495	
244	1	6	-0.683	-1.4	-4.9518	14	
245	1	7	0.418	-2.4	-4.9518	14	
246	1	6	-0.683	-1.4	-3.537	9.099	
247	1	7	0.418	-2.4	-3.537	9.099	
248	1	6	-0.683	-1.4	2.8296	10.3243	
249	1	7	0.418	-2.4	2.8296	10.3243	
250	1	6	-0.683	1.4	-7.7814	14	
251	1	7	0.418	2.4	-7.7814	14	
252	1	6	-0.683	1.4	3.537	9.099	
253	1	7	0.418	2.4	3.537	9.099	
254	1	6	-0.683	1.4	4.9518	11.5495	
255	1	7	0.418	2.4	4.9518	11.5495	
256	1	6	-0.683	-1.4	-7.074	15.2253	
257	1	7	0.418	-2.4	-7.074	15.2253	
258	1	6	-0.683	1.4	5.6592	10.3243	
259	1	7	0.418	2.4	5.6592	10.3243	
260	1	6	-0.683	1.4	-5.6592	15.2253	
261	1	7	0.418	2.4	-5.6592	15.2253	
262	1	6	-0.683	-1.4	-2.8296	12.7748	
263	1	7	0.418	-2.4	-2.8296	12.7748	
264	2	1	-0.8476	-26.3459	-26.3421	-45.9762	
265	2	2	0.4238	-25.3459	-26.3421	-45.9762	
266	2	2	0.4238	-26.6792	-25.3993	-45.9762	
267	3	1	-0.8476	-22.9262	-26.3297	-45.9915	
268	3	2	0.4238	-21.9262	-26.3297	-45.9915	
269	3	2	0.4238	-23.2595	-25.3869	-45.9915	
270	4	1	-0.8476	-19.5785	-26.3189	-45.9553	
271	4	2	0.4238	-18.5785	-26.3189	-45.9553	
272	4	2	0.4238	-19.9118	-25.3761	-45.9553	
273	5	1	-0.8476	-16.1082	-26.3062	-46.0383	
274	5	2	0.4238	-15.1082	-26.3062	-46.0383	
275	5	2	0.4238	-16.4415	-25.3634	-46.0383	
276	6	1	-0.8476	-12.7162	-26.3002	-45.9893	
277	6	2	0.4238	-11.7162	-26.3002	-45.9893	
278	6	2	0.4238	-13.0495	-25.3574	-45.9893	
279	7	1	-0.8476	-9.356	-26.3537	-45.9981	
280	7	2	0.4238	-8.356	-26.3537	-45.9981	
281	7	2	0.4238	-9.6893	-25.4109	-45.9981	
282	8	1	-0.8476	-5.9553	-26.3406	-45.9646	
283	8	2	0.4238	-4.9553	-26.3406	-45.9646	
284	8	2	0.4238	-6.2886	-25.3978	-45.9646	
285	9	1	-0.8476	-2.5934	-26.3713	-46.002	
286	9	2	0.4238	-1.5934	-26.3713	-46.002	
287	9	2	0.4238	-2.9267	-25.4285	-46.002	
288	10	1	-0.8476	0.81562	-26.3895	-46.0049	
289	10	2	0.4238	1.8156	-26.3895	-46.0049	
290	10	2	0.4238	0.48231	-25.4467	-46.0049	
291	11	1	-0.8476	4.2928	-26.3857	-46.021	
292	11	2	0.4238	5.2928	-26.3857	-46.021	
293	11	2	0.4238	3.9595	-25.4429	-46.021	
294	12	1	-0.8476	7.6427	-26.33	-45.9697	
295	12	2	0.4238	8.6427	-26.33	-45.9697	
296	12	2	0.4238	7.3094	-25.3872	-45.9697	
297	13	1	-0.8476	11.0736	-26.3116	-46.0422	
298	13	2	0.4238	12.0736	-26.3116	-46.0422	
299	13	2	0.4238	10.7402	-25.3688	-46.0422	
300	14	1	-0.8476	14.4307	-26.3339	-45.9918	
301	14	2	0.4238	15.4307	-26.3339	-45.9918	
302	14	2	0.4238	14.0974	-25.3911	-45.9918	
303	15	1	-0.8476	17.8946	-26.3409	-46.0347	
304	15	2	0.4238	18.8946	-26.3409	-46.0347	
305	15	2	0.4238	17.5613	-25.3981	-46.0347	
306	16	1	-0.8476	21.2139	-26.38	-46.0117	
307	16	2	0.4238	22.2139	-26.38	-46.0117	
308	16	2	0.4238	20.8806	-25.4372	-46.0117	
309	17	1	-0.8476	24.664	-26.3076	-46.0163	
310	17	2	0.4238	25.664	-26.3076	-46.0163	
311	17	2	0.4238	24.3307	-25.3648	-46.0163	
312	18	1	-0.8476	-26.3945	-22.9926	-45.9504	
313	18	2	0.4238	-25.3945	-22.9926	-45.9504	
314	18	2	0.4238	-26.7279	-22.0498	-45.9504	
315	19	1	-0.8476	-22.9201	-22.9566	-46.0211	
316	19	2	0.4238	-21.9201	-22.9566	-46.0211	
317	19	2	0.4238	-23.2534	-22.0138	-46.0211	
318	20	1	-0.8476	-19.5983	-22.9033	-45.9852	
319	20	2	0.4238	-18.5983	-22.9033	-45.9852	
320	20	2	0.4238	-19.9316	-21.9605	-45.9852	
321	21	1	-0.8476	-16.1694	-22.9591	-46.0202	
322	21	2	0.4238	-15.1694	-22.9591	-46.0202	
323	21	2	0.4238	-16.5027	-22.0163	-46.0202	
324	22	1	-0.8476	-12.7063	-22.9507	-45.9983	
325	22	2	0.4238	-11.7063	-22.9507	-45.9983	
326	22	2	0.4238	-13.0396	-22.0079	-45.9983	
327	23	1	-0.8476	-9.3196	-22.9891	-46.0001	
328	23	2	0.4238	-8.3196	-22.9891	-46.0001	
329	23	2	0.4238	-9.6529	-22.0463	-46.0001	
330	24	1	-0.8476	-5.9861	-22.9649	-46.028	
331	24	2	0.4238	-4.9861	-22.9649	-46.028	
332	24	2	0.4238	-6.3194	-22.0221	-46.028	
333	25	1	-0.8476	-2.5671	-22.9126	-46.0103	
334	25	2	0.4238	-1.5671	-22.9126	-46.0103	
335	25	2	0.4238	-2.9004	-21.9698	-46.0103	
336	26	1	-0.8476	0.81048	-22.9592	-45.9949	
337	26	2	0.4238	1.8105	-22.9592	-45.9949	
338	26	2	0.4238	0.47717	-22.0164	-45.9949	
339	27	1	-0.8476	4.2071	-22.957	-45.9839	
340	27	2	0.4238	5.2071	-22.957	-45.9839	
341	27	2	0.4238	3.8738	-22.0142	-45.9839	
342	28	1	-0.8476	7.686	-22.9748	-45.9804	
343	28	2	0.4238	8.686	-22.9748	-45.9804	
344	28	2	0.4238	7.3527	-22.032	-45.9804	
345	29	1	-0.8476	11.0629	-22.9277	-45.9747	
346	29	2	0.4238	12.0629	-22.9277	-45.9747	
347	29	2	0.4238	10.7295	-21.9849	-45.9747	
348	30	1	-0.8476	14.4704	-22.9321	-45.9685	
349	30	2	0.4238	15.4704	-22.9321	-45.9685	
350	30	2	0.4238	14.1371	-21.9893	-45.9685	
351	31	1	-0.8476	17.8229	-22.9842	-46.0416	
352	31	2	0.4238	18.8229	-22.9842	-46.0416	
353	31	2	0.4238	17.4896	-22.0414	-46.0416	
354	32	1	-0.8476	21.2402	-22.9371	-46.0331	
355	32	2	0.4238	22.2402	-22.9371	-46.0331	
356	32	2	0.4238	20.9069	-21.9943	-46.0331	
357	33	1	-0.8476	24.6284	-22.9774	-46.0374	
358	33	2	0.4238	25.6284	-22.9774	-46.0374	
359	33	2	0.4238	24.2951	-22.0346	-46.0374	
360	34	1	-0.8476	-26.3997	-19.5589	-45.9995	
361	34	2	0.4238	-25.3997	-19.5589	-45.9995	
362	34	2	0.4238	-26.733	-18.6161	-45.9995	
363	35	1	-0.8476	-22.9503	-19.5882	-45.9918	
364	35	2	0.4238	-21.9503	-19.5882	-45.9918	
365	35	2	0.4238	-23.2836	-18.6454	-45.9918	
366	36	1	-0.8476	-19.5525	-19.5542	-46.0328	
367	36	2	0.4238	-18.5525	-19.5542	-46.0328	
368	36	2	0.4238	-19.8858	-18.6114	-46.0328	
369	37	1	-0.8476	-16.1651	-19.5012	-45.957	
370	37	2	0.4238	-15.1651	-19.5012	-45.957	
371	37	2	0.4238	-16.4985	-18.5584	-45.957	
372	38	1	-0.8476	-12.782	-19.5862	-45.9619	
373	38	2	0.4238	-11.782	-19.5862	-45.9619	
374	38	2	0.4238	-13.1154	-18.6434	-45.9619	
375	39	1	-0.8476	-9.3556	-19.5662	-45.9925	
376	39	2	0.4238	-8.3556	-19.5662	-45.9925	
377	39	2	0.4238	-9.6889	-18.6234	-45.9925	
378	40	1	-0.8476	-5.9363	-19.5401	-46.0301	
379	40	2	0.4238	-4.9363	-19.5401	-46.0301	
380	40	2	0.4238	-6.2696	-18.5973	-46.0301	
381	41	1	-0.8476	-2.5834	-19.5779	-45.9964	
382	41	2	0.4238	-1.5834	-19.5779	-45.9964	
383	41	2	0.4238	-2.9167	-18.6351	-45.9964	
384	42	1	-0.8476	0.87246	-19.5048	-45.9971	
385	42	2	0.4238	1.8725	-19.5048	-45.9971	
386	42	2	0.4238	0.53915	-18.562	-45.9971	
387	43	1	-0.8476	4.2326	-19.5896	-45.9937	
388	43	2	0.4238	5.2326	-19.5896	-45.9937	
389	43	2	0.4238	3.8993	-18.6468	-45.9937	
390	44	1	-0.8476	7.6856	-19.5903	-46.0122	
391	44	2	0.4238	8.6856	-19.5903	-46.0122	
392	44	2	0.4238	7.3523	-18.6475	-46.0122	
393	45	1	-0.8476	11.0716	-19.579	-46.0017	
394	45	2	0.4238	12.0716	-19.579	-46.0017	
395	45	2	0.4238	10.7383	-18.6362	-46.0017	
396	46	1	-0.8476	14.4385	-19.5726	-46.0145	
397	46	2	0.4238	15.4385	-19.5726	-46.0145	
398	46	2	0.4238	14.1052	-18.6298	-46.0145	
399	47	1	-0.8476	17.8968	-19.5369	-45.9897	
400	47	2	0.4238	18.8968	-19.5369	-45.9897	
401	47	2	0.4238	17.5635	-18.5941	-45.9897	
402	48	1	-0.8476	21.204	-19.5193	-46.0441	
403	48	2	0.4238	22.204	-19.5193	-46.0441	
404	48	2	0.4238	20.8707	-18.5765	-46.0441	
405	49	1	-0.8476	24.6867	-19.5806	-45.9616	
406	49	2	0.4238	25.6867	-19.5806	-45.9616	
407	49	2	0.4238	24.3534	-18.6378	-45.9616	
408	50	1	-0.8476	-26.3767	-16.1354	-45.9571	
409	50	2	0.4238	-25.3767	-16.1354	-45.9571	
410	50	2	0.4238	-26.71	-15.1926	-45.9571	
411	51	1	-0.8476	-22.9929	-16.1298	-46.0402	
412	51	2	0.4238	-21.9929	-16.1298	-46.0402	
413	51	2	0.4238	-23.3262	-15.187	-46.0402	
414	52	1	-0.8476	-19.5065	-16.187	-46.0465	
415	52	2	0.4238	-18.5065	-16.187	-46.0465	
416	52	2	0.4238	-19.8398	-15.2442	-46.0465	
417	53	1	-0.8476	-16.1971	-16.1127	-45.9532	
418	53	2	0.4238	-15.1971	-16.1127	-45.9532	
419	53	2	0.4238	-16.5304	-15.1699	-45.9532	
420	54	1	-0.8476	-12.7285	-16.1597	-45.9667	
421	54	2	0.4238	-11.7285	-16.1597	-45.9667	
422	54	2	0.4238	-13.0618	-15.2169	-45.9667	
423	55	1	-0.8476	-9.3644	-16.12	-46.0493	
424	55	2	0.4238	-8.3644	-16.12	-46.0493	
425	55	2	0.4238	-9.6977	-15.1772	-46.0493	
426	56	1	-0.8476	-5.9412	-16.1585	-46.0185	
427	56	2	0.4238	-4.9412	-16.1585	-46.0185	
428	56	2	0.4238	-6.2745	-15.2157	-46.0185	
429	57	1	-0.8476	-2.5635	-16.188	-46.0306	
430	57	2	0.4238	-1.5635	-16.188	-46.0306	
431	57	2	0.4238	-2.8968	-15.2452	-46.0306	
432	58	1	-0.8476	0.84522	-16.1244	-45.9579	
433	58	2	0.4238	1.8452	-16.1244	-45.9579	
434	58	2	0.4238	0.51191	-15.1816	-45.9579	
435	59	1	-0.8476	4.2005	-16.1968	-46.0111	
436	59	2	0.4238	5.2005	-16.1968	-46.0111	
437	59	2	0.4238	3.8672	-15.254	-46.0111	
438	60	1	-0.8476	7.6152	-16.1753	-46.0481	
439	60	2	0.4238	8.6152	-16.1753	-46.0481	
440	60	2	0.4238	7.2819	-15.2325	-46.0481	
441	61	1	-0.8476	11.0028	-16.1614	-46.009	
442	61	2	0.4238	12.0028	-16.1614	-46.009	
443	61	2	0.4238	10.6694	-15.2186	-46.009	
444	62	1	-0.8476	14.4902	-16.1925	-46.0136	
445	62	2	0.4238	15.4902	-16.1925	-46.0136	
446	62	2	0.4238	14.1569	-15.2497	-46.0136	
447	63	1	-0.8476	17.8231	-16.1993	-46.0411	
448	63	2	0.4238	18.8231	-16.1993	-46.0411	
449	63	2	0.4238	17.4898	-15.2565	-46.0411	
450	64	1	-0.8476	21.2808	-16.1476	-46.046	
451	64	2	0.4238	22.2808	-16.1476	-46.046	
452	64	2	0.4238	20.9475	-15.2048	-46.046	
453	65	1	-0.8476	24.6572	-16.135	-45.9858	
454	65	2	0.4238	25.6572	-16.135	-45.9858	
455	65	2	0.4238	24.3239	-15.1922	-45.9858	
456	66	1	-0.8476	-26.376	-12.7222	-46.0267	
457	66	2	0.4238	-25.376	-12.7222	-46.0267	
458	66	2	0.4238	-26.7093	-11.7794	-46.0267	
459	67	1	-0.8476	-22.9527	-12.7388	-46.0426	
460	67	2	0.4238	-21.9527	-12.7388	-46.0426	
461	67	2	0.4238	-23.286	-11.796	-46.0426	
462	68	1	-0.8476	-19.5148	-12.7169	-46.0124	
463	68	2	0.4238	-18.5148	-12.7169	-46.0124	
464	68	2	0.4238	-19.8482	-11.7741	-46.0124	
465	69	1	-0.8476	-16.1082	-12.768	-45.973	
466	69	2	0.4238	-15.1082	-12.768	-45.973	
467	69	2	0.4238	-16.4415	-11.8252	-45.973	
468	70	1	-0.8476	-12.7241	-12.7223	-45.9536	
469	70	2	0.4238	-11.7241	-12.7223	-45.9536	
470	70	2	0.4238	-13.0574	-11.7795	-45.9536	
471	71	1	-0.8476	-9.3113	-12.7726	-45.9717	
472	71	2	0.4238	-8.3113	-12.7726	-45.9717	
473	71	2	0.4238	-9.6446	-11.8298	-45.9717	
474	72	1	-0.8476	-5.9137	-12.7052	-46.0264	
475	72	2	0.4238	-4.9137	-12.7052	-46.0264	
476	72	2	0.4238	-6.2471	-11.7624	-46.0264	
477	73	1	-0.8476	-2.53	-12.7181	-46.0163	
478	73	2	0.4238	-1.53	-12.7181	-46.0163	
479	73	2	0.4238	-2.8633	-11.7753	-46.0163	
480	74	1	-0.8476	0.8632	-12.7464	-46.0022	
481	74	2	0.4238	1.8632	-12.7464	-46.0022	
482	74	2	0.4238	0.52989	-11.8036	-46.0022	
483	75	1	-0.8476	4.2751	-12.755	-45.951	
484	75	2	0.4238	5.2751	-12.755	-45.951	
485	75	2	0.4238	3.9418	-11.8122	-45.951	
486	76	1	-0.8476	7.626	-12.7043	-46.0175	
487	76	2	0.4238	8.626	-12.7043	-46.0175	
488	76	2	0.4238	7.2927	-11.7615	-46.0175	
489	77	1	-0.8476	11.0077	-12.7839	-46.0113	
490	77	2	0.4238	12.0077	-12.7839	-46.0113	
491	77	2	0.4238	10.6744	-11.8411	-46.0113	
492	78	1	-0.8476	14.4022	-12.722	-46.0469	
493	78	2	0.4238	15.4022	-12.722	-46.0469	
494	78	2	0.4238	14.0688	-11.7792	-46.0469	
495	79	1	-0.8476	17.8932	-12.7513	-45.9755	
496	79	2	0.4238	18.8932	-12.7513	-45.9755	
497	79	2	0.4238	17.5599	-11.8085	-45.9755	
498	80	1	-0.8476	21.2461	-12.7444	-45.9944	
499	80	2	0.4238	22.2461	-12.7444	-45.9944	
500	80	2	0.4238	20.9128	-11.8016	-45.9944	
501	81	1	-0.8476	24.6704	-12.7518	-46.0386	
502	81	2	0.4238	25.6704	-12.7518	-46.0386	
503	81	2	0.4238	24.3371	-11.809	-46.0386	
504	82	1	-0.8476	-26.3416	-9.342	-45.9659	
505	82	2	0.4238	-25.3416	-9.342	-45.9659	
506	82	2	0.4238	-26.6749	-8.3992	-45.9659	
507	83	1	-0.8476	-22.9335	-9.3143	-46.042	
508	83	2	0.4238	-21.9335	-9.3143	-46.042	
509	83	2	0.4238	-23.2668	-8.3715	-46.042	
510	84	1	-0.8476	-19.5176	-9.3407	-46.0145	
511	84	2	0.4238	-18.5176	-9.3407	-46.0145	
512	84	2	0.4238	-19.8509	-8.3979	-46.0145	
513	85	1	-0.8476	-16.1833	-9.3819	-46.0082	
514	85	2	0.4238	-15.1833	-9.3819	-46.0082	
515	85	2	0.4238	-16.5166	-8.4391	-46.0082	
516	86	1	-0.8476	-12.7854	-9.3478	-46.014	
517	86	2	0.4238	-11.7854	-9.3478	-46.014	
518	86	2	0.4238	-13.1187	-8.405	-46.014	
519	87	1	-0.8476	-9.3966	-9.3214	-46.0145	
520	87	2	0.4238	-8.3966	-9.3214	-46.0145	
521	87	2	0.4238	-9.7299	-8.3786	-46.0145	
522	88	1	-0.8476	-5.9174	-9.3216	-46.0226	
523	88	2	0.4238	-4.9174	-9.3216	-46.0226	
524	88	2	0.4238	-6.2507	-8.3788	-46.0226	
525	89	1	-0.8476	-2.5377	-9.3543	-46.0035	
526	89	2	0.4238	-1.5377	-9.3543	-46.0035	
527	89	2	0.4238	-2.871	-8.4115	-46.0035	
528	90	1	-0.8476	0.86711	-9.3142	-46.0434	
529	90	2	0.4238	1.8671	-9.3142	-46.0434	
530	90	2	0.4238	0.5338	-8.3714	-46.0434	
531	91	1	-0.8476	4.2757	-9.3201	-45.9913	
532	91	2	0.4238	5.2757	-9.3201	-45.9913	
533	91	2	0.4238	3.9424	-8.3773	-45.9913	
534	92	1	-0.8476	7.6365	-9.3727	-45.9555	
535	92	2	0.4238	8.6365	-9.3727	-45.9555	
536	92	2	0.4238	7.3032	-8.4299	-45.9555	
537	93	1	-0.8476	11.0602	-9.3703	-45.9946	
538	93	2	0.4238	12.0602	-9.3703	-45.9946	
539	93	2	0.4238	10.7269	-8.4275	-45.9946	
540	94	1	-0.8476	14.4806	-9.3535	-45.9757	
541	94	2	0.4238	15.4806	-9.3535	-45.9757	
542	94	2	0.4238	14.1473	-8.4107	-45.9757	
543	95	1	-0.8476	17.8976	-9.3679	-45.9765	
544	95	2	0.4238	18.8976	-9.3679	-45.9765	
545	95	2	0.4238	17.5643	-8.4251	-45.9765	
546	96	1	-0.8476	21.2318	-9.3863	-46.0187	
547	96	2	0.4238	22.2318	-9.3863	-46.0187	
548	96	2	0.4238	20.8985	-8.4435	-46.0187	
549	97	1	-0.8476	24.6973	-9.3189	-46.028	
550	97	2	0.4238	25.6973	-9.3189	-46.028	
551	97	2	0.4238	24.364	-8.3761	-46.028	
552	98	1	-0.8476	-26.3231	-5.9078	-45.9694	
553	98	2	0.4238	-25.3231	-5.9078	-45.9694	
554	98	2	0.4238	-26.6564	-4.965	-45.9694	
555	99	1	-0.8476	-22.9991	-5.9669	-46.0407	
556	99	2	0.4238	-21.9991	-5.9669	-46.0407	
557	99	2	0.4238	-23.3324	-5.0241	-46.0407	
558	100	1	-0.8476	-19.5643	-5.9046	-45.9773	
559	100	2	0.4238	-18.5643	-5.9046	-45.9773	
560	100	2	0.4238	-19.8976	-4.9618	-45.9773	
561	101	1	-0.8476	-16.1981	-5.9274	-46.0295	
562	101	2	0.4238	-15.1981	-5.9274	-46.0295	
563	101	2	0.4238	-16.5314	-4.9846	-46.0295	
564	102	1	-0.8476	-12.7041	-5.985	-46.0341	
565	102	2	0.4238	-11.7041	-5.985	-46.0341	
566	102	2	0.4238	-13.0374	-5.0422	-46.0341	
567	103	1	-0.8476	-9.3636	-5.9169	-45.9703	
568	103	2	0.4238	-8.3636	-5.9169	-45.9703	
569	103	2	0.4238	-9.697	-4.9741	-45.9703	
570	104	1	-0.8476	-5.99	-5.9199	-45.9634	
571	104	2	0.4238	-4.99	-5.9199	-45.9634	
572	104	2	0.4238	-6.3234	-4.9771	-45.9634	
573	105	1	-0.8476	-2.5138	-5.9471	-46.0071	
574	105	2	0.4238	-1.5138	-5.9471	-46.0071	
575	105	2	0.4238	-2.8471	-5.0043	-46.0071	
576	106	1	-0.8476	0.81446	-5.9708	-46.0174	
577	106	2	0.4238	1.8145	-5.9708	-46.0174	
578	106	2	0.4238	0.48115	-5.028	-46.0174	
579	107	1	-0.8476	4.2077	-5.9715	-45.9911	
580	107	2	0.4238	5.2077	-5.9715	-45.9911	
581	107	2	0.4238	3.8744	-5.0287	-45.9911	
582	108	1	-0.8476	7.6809	-5.9541	-45.9761	
583	108	2	0.4238	8.6809	-5.9541	-45.9761	
584	108	2	0.4238	7.3476	-5.0113	-45.9761	
585	109	1	-0.8476	11.0076	-5.9109	-46.0198	
586	109	2	0.4238	12.0076	-5.9109	-46.0198	
587	109	2	0.4238	10.6743	-4.9681	-46.0198	
588	110	1	-0.8476	14.4088	-5.9374	-45.9718	
589	110	2	0.4238	15.4088	-5.9374	-45.9718	
590	110	2	0.4238	14.0755	-4.9946	-45.9718	
591	111	1	-0.8476	17.8055	-5.9021	-46.0144	
592	111	2	0.4238	18.8055	-5.9021	-46.0144	
593	111	2	0.4238	17.4722	-4.9593	-46.0144	
594	112	1	-0.8476	21.2113	-5.9329	-45.9621	
595	112	2	0.4238	22.2113	-5.9329	-45.9621	
596	112	2	0.4238	20.878	-4.9901	-45.9621	
597	113	1	-0.8476	24.6624	-5.9787	-46.0413	
598	113	2	0.4238	25.6624	-5.9787	-46.0413	
599	113	2	0.4238	24.3291	-5.0359	-46.0413	
600	114	1	-0.8476	-26.3481	-2.5527	-45.9975	
601	114	2	0.4238	-25.3481	-2.5527	-45.9975	
602	114	2	0.4238	-26.6814	-1.6099	-45.9975	
603	115	1	-0.8476	-22.9168	-2.5484	-45.9818	
604	115	2	0.4238	-21.9168	-2.5484	-45.9818	
605	115	2	0.4238	-23.2501	-1.6056	-45.9818	
606	116	1	-0.8476	-19.5629	-2.5318	-46.0171	
607	116	2	0.4238	-18.5629	-2.5318	-46.0171	
608	116	2	0.4238	-19.8962	-1.589	-46.0171	
609	117	1	-0.8476	-16.1757	-2.5631	-45.9573	
610	117	2	0.4238	-15.1757	-2.5631	-45.9573	
611	117	2	0.4238	-16.509	-1.6203	-45.9573	
612	118	1	-0.8476	-12.7052	-2.5993	-46.0287	
613	118	2	0.4238	-11.7052	-2.5993	-46.0287	
614	118	2	0.4238	-13.0385	-1.6565	-46.0287	
615	119	1	-0.8476	-9.3981	-2.5737	-45.9607	
616	119	2	0.4238	-8.3981	-2.5737	-45.9607	
617	119	2	0.4238	-9.7314	-1.6309	-45.9607	
618	120	1	-0.8476	-5.9955	-2.5125	-46.0052	
619	120	2	0.4238	-4.9955	-2.5125	-46.0052	
620	120	2	0.4238	-6.3288	-1.5697	-46.0052	
621	121	1	-0.8476	-2.5117	-2.5771	-46.0111	
622	121	2	0.4238	-1.5117	-2.5771	-46.0111	
623	121	2	0.4238	-2.845	-1.6343	-46.0111	
624	122	1	-0.8476	0.87644	-2.5171	-46.0113	
625	122	2	0.4238	1.8764	-2.5171	-46.0113	
626	122	2	0.4238	0.54313	-1.5743	-46.0113	
627	123	1	-0.8476	4.2844	-2.5353	-45.9913	
628	123	2	0.4238	5.2844	-2.5353	-45.9913	
629	123	2	0.4238	3.951	-1.5925	-45.9913	
630	124	1	-0.8476	7.6576	-2.5486	-45.9864	
631	124	2	0.4238	8.6576	-2.5486	-45.9864	
632	124	2	0.4238	7.3243	-1.6058	-45.9864	
633	125	1	-0.8476	11.0013	-2.5585	-46.0336	
634	125	2	0.4238	12.0013	-2.5585	-46.0336	
635	125	2	0.4238	10.668	-1.6157	-46.0336	
636	126	1	-0.8476	14.4355	-2.5283	-46.0155	
637	126	2	0.4238	15.4355	-2.5283	-46.0155	
638	126	2	0.4238	14.1022	-1.5855	-46.0155	
639	127	1	-0.8476	17.8363	-2.5749	-45.9742	
640	127	2	0.4238	18.8363	-2.5749	-45.9742	
641	127	2	0.4238	17.503	-1.6321	-45.9742	
642	128	1	-0.8476	21.2232	-2.5521	-46.0371	
643	128	2	0.4238	22.2232	-2.5521	-46.0371	
644	128	2	0.4238	20.8899	-1.6093	-46.0371	
645	129	1	-0.8476	24.6815	-2.511	-45.9866	
646	129	2	0.4238	25.6815	-2.511	-45.9866	
647	129	2	0.4238	24.3482	-1.5682	-45.9866	
648	130	1	-0.8476	-26.3549	0.8452	-45.9584	
649	130	2	0.4238	-25.3549	0.8452	-45.9584	
650	130	2	0.4238	-26.6882	1.788	-45.9584	
651	131	1	-0.8476	-22.9355	0.84566	-46.0312	
652	131	2	0.4238	-21.9355	0.84566	-46.0312	
653	131	2	0.4238	-23.2688	1.7885	-46.0312	
654	132	1	-0.8476	-19.557	0.81976	-45.9513	
655	132	2	0.4238	-18.557	0.81976	-45.9513	
656	132	2	0.4238	-19.8903	1.7626	-45.9513	
657	133	1	-0.8476	-16.1315	0.80879	-46.0354	
658	133	2	0.4238	-15.1315	0.80879	-46.0354	
659	133	2	0.4238	-16.4648	1.7516	-46.0354	
660	134	1	-0.8476	-12.767	0.859	-46.0349	
661	134	2	0.4238	-11.767	0.859	-46.0349	
662	134	2	0.4238	-13.1003	1.8018	-46.0349	
663	135	1	-0.8476	-9.3784	0.86642	-45.9947	
664	135	2	0.4238	-8.3784	0.86642	-45.9947	
665	135	2	0.4238	-9.7117	1.8092	-45.9947	
666	136	1	-0.8476	-5.9256	0.82202	-45.9898	
667	136	2	0.4238	-4.9256	0.82202	-45.9898	
668	136	2	0.4238	-6.2589	1.7648	-45.9898	
669	137	1	-0.8476	-2.5846	0.89492	-45.9983	
670	137	2	0.4238	-1.5846	0.89492	-45.9983	
671	137	2	0.4238	-2.9179	1.8377	-45.9983	
672	138	1	-0.8476	0.89112	0.8956	-45.9637	
673	138	2	0.4238	1.8911	0.8956	-45.9637	
674	138	2	0.4238	0.55781	1.8384	-45.9637	
675	139	1	-0.8476	4.2876	0.88444	-46.0249	
676	139	2	0.4238	5.2876	0.88444	-46.0249	
677	139	2	0.4238	3.9542	1.8272	-46.0249	
678	140	1	-0.8476	7.6968	0.87113	-45.9912	
679	140	2	0.4238	8.6968	0.87113	-45.9912	
680	140	2	0.4238	7.3635	1.8139	-45.9912	
681	141	1	-0.8476	11.098	0.81979	-46.026	
682	141	2	0.4238	12.098	0.81979	-46.026	
683	141	2	0.4238	10.7647	1.7626	-46.026	
684	142	1	-0.8476	14.4544	0.89309	-46.0283	
685	142	2	0.4238	15.4544	0.89309	-46.0283	
686	142	2	0.4238	14.121	1.8359	-46.0283	
687	143	1	-0.8476	17.8369	0.81613	-45.9537	
688	143	2	0.4238	18.8369	0.81613	-45.9537	
689	143	2	0.4238	17.5036	1.7589	-45.9537	
690	144	1	-0.8476	21.2724	0.84723	-46.0343	
691	144	2	0.4238	22.2724	0.84723	-46.0343	
692	144	2	0.4238	20.9391	1.79	-46.0343	
693	145	1	-0.8476	24.6445	0.80183	-45.9519	
694	145	2	0.4238	25.6445	0.80183	-45.9519	
695	145	2	0.4238	24.3112	1.7446	-45.9519	
696	146	1	-0.8476	-26.3334	4.2723	-46.0087	
697	146	2	0.4238	-25.3334	4.2723	-46.0087	
698	146	2	0.4238	-26.6667	5.2151	-46.0087	
699	147	1	-0.8476	-22.9784	4.2694	-45.9628	
700	147	2	0.4238	-21.9784	4.2694	-45.9628	
701	147	2	0.4238	-23.3117	5.2122	-45.9628	
702	148	1	-0.8476	-19.5307	4.2061	-46.0261	
703	148	2	0.4238	-18.5307	4.2061	-46.0261	
704	148	2	0.4238	-19.864	5.1489	-46.0261	
705	149	1	-0.8476	-16.1827	4.2807	-46.0355	
706	149	2	0.4238	-15.1827	4.2807	-46.0355	
707	149	2	0.4238	-16.516	5.2235	-46.0355	
708	150	1	-0.8476	-12.7543	4.2966	-45.9824	
709	150	2	0.4238	-11.7543	4.2966	-45.9824	
710	150	2	0.4238	-13.0876	5.2394	-45.9824	
711	151	1	-0.8476	-9.3334	4.2777	-45.9764	
712	151	2	0.4238	-8.3334	4.2777	-45.9764	
713	151	2	0.4238	-9.6667	5.2205	-45.9764	
714	152	1	-0.8476	-5.9998	4.2035	-46.0242	
715	152	2	0.4238	-4.9998	4.2035	-46.0242	
716	152	2	0.4238	-6.3331	5.1463	-46.0242	
717	153	1	-0.8476	-2.592	4.2939	-45.9542	
718	153	2	0.4238	-1.592	4.2939	-45.9542	
719	153	2	0.4238	-2.9253	5.2367	-45.9542	
720	154	1	-0.8476	0.83158	4.2562	-45.9733	
721	154	2	0.4238	1.8316	4.2562	-45.9733	
722	154	2	0.4238	0.49827	5.199	-45.9733	
723	155	1	-0.8476	4.2524	4.2027	-46.035	
724	155	2	0.4238	5.2524	4.2027	-46.035	
725	155	2	0.4238	3.9191	5.1455	-46.035	
726	156	1	-0.8476	7.6414	4.297	-46.009	
727	156	2	0.4238	8.6414	4.297	-46.009	
728	156	2	0.4238	7.3081	5.2398	-46.009	
729	157	1	-0.8476	11.0453	4.2842	-45.9702	
730	157	2	0.4238	12.0453	4.2842	-45.9702	
731	157	2	0.4238	10.712	5.227	-45.9702	
732	158	1	-0.8476	14.4841	4.2845	-45.9672	
733	158	2	0.4238	15.4841	4.2845	-45.9672	
734	158	2	0.4238	14.1508	5.2273	-45.9672	
735	159	1	-0.8476	17.8577	4.2896	-45.9514	
736	159	2	0.4238	18.8577	4.2896	-45.9514	
737	159	2	0.4238	17.5244	5.2324	-45.9514	
738	160	1	-0.8476	21.2793	4.277	-46.0161	
739	160	2	0.4238	22.2793	4.277	-46.0161	
740	160	2	0.4238	20.946	5.2198	-46.0161	
741	161	1	-0.8476	24.6564	4.2642	-46.0392	
742	161	2	0.4238	25.6564	4.2642	-46.0392	
743	161	2	0.4238	24.3231	5.207	-46.0392	
744	162	1	-0.8476	-26.3719	7.6662	-45.9911	
745	162	2	0.4238	-25.3719	7.6662	-45.9911	
746	162	2	0.4238	-26.7052	8.609	-45.9911	
747	163	1	-0.8476	-22.9252	7.647	-46.0336	
748	163	2	0.4238	-21.9252	7.647	-46.0336	
749	163	2	0.4238	-23.2585	8.5898	-46.0336	
750	164	1	-0.8476	-19.5855	7.6912	-46.0307	
751	164	2	0.4238	-18.5855	7.6912	-46.0307	
752	164	2	0.4238	-19.9188	8.634	-46.0307	
753	165	1	-0.8476	-16.1392	7.6648	-45.9509	
754	165	2	0.4238	-15.1392	7.6648	-45.9509	
755	165	2	0.4238	-16.4725	8.6076	-45.9509	
756	166	1	-0.8476	-12.7731	7.6278	-45.9575	
757	166	2	0.4238	-11.7731	7.6278	-45.9575	
758	166	2	0.4238	-13.1064	8.5706	-45.9575	
759	167	1	-0.8476	-9.3013	7.6303	-45.968	
760	167	2	0.4238	-8.3013	7.6303	-45.968	
761	167	2	0.4238	-9.6347	8.5731	-45.968	
762	168	1	-0.8476	-5.9546	7.6021	-46.0067	
763	168	2	0.4238	-4.9546	7.6021	-46.0067	
764	168	2	0.4238	-6.2879	8.5449	-46.0067	
765	169	1	-0.8476	-2.5589	7.6239	-46.0286	
766	169	2	0.4238	-1.5589	7.6239	-46.0286	
767	169	2	0.4238	-2.8922	8.5667	-46.0286	
768	170	1	-0.8476	0.85731	7.6638	-46.0132	
769	170	2	0.4238	1.8573	7.6638	-46.0132	