# System

13763 atoms
9330 bonds
5113 angles
1193 dihedrals
147 impropers

15 atom types
8 bond types
14 angle types
15 dihedral types
1 improper types
extra bond per atom 2
extra angle per atom 1
extra special per atom 2
-27.2         27.2 xlo xhi
-27.2         27.2 ylo yhi
-50  50 zlo zhi

Atoms

1	1	3	-0.115	0	-9.1962	6.198	
2	1	3	-0.115	0	-9.9036	7.4233	
3	1	3	0	0	-9.1962	8.6485	
4	1	3	-0.115	0	-9.9036	9.8738	
5	1	3	0	0	-9.1962	11.099	
6	1	3	-0.115	0	-9.9036	12.3243	
7	1	3	0	0	-9.1962	13.5495	
8	1	3	-0.115	0	-9.9036	14.7748	
9	1	3	0	0	-9.1962	16	
10	1	13	0.15	0	-9.9036	17.2253	
11	1	3	0	0	-9.1962	18.4505	
12	1	3	-0.115	0	-9.9036	19.6758	
13	1	3	0	0	-9.1962	20.901	
14	1	13	0.15	0	-9.9036	22.1263	
15	1	3	0	0	-9.1962	23.3515	
16	1	3	-0.115	0	-9.9036	24.5768	
17	1	3	-0.115	0	-9.1962	25.802	
18	1	13	0.15	0	-7.7814	6.198	
19	1	3	0	0	-7.074	7.4233	
20	1	3	0	0	-7.7814	8.6485	
21	1	3	0	0	-7.074	9.8738	
22	1	3	0	0	-7.7814	11.099	
23	1	3	0	0	-7.074	12.3243	
24	1	3	0	0	-7.7814	13.5495	
25	1	3	0	0	-7.074	14.7748	
26	1	5	0.265	0	-7.7814	16	
27	1	5	0.265	0	-7.074	17.2253	
28	1	3	0	0	-7.7814	18.4505	
29	1	3	0	0	-7.074	19.6758	
30	1	3	0	0	-7.7814	20.901	
31	1	3	0	0	-7.074	22.1263	
32	1	3	0	0	-7.7814	23.3515	
33	1	3	0	0	-7.074	24.5768	
34	1	3	-0.115	0	-7.7814	25.802	
35	1	13	0.15	0	-4.9518	6.198	
36	1	5	0.265	0	-5.6592	7.4233	
37	1	5	0.265	0	-4.9518	8.6485	
38	1	5	0.265	0	-5.6592	9.8738	
39	1	5	0.265	0	-4.9518	11.099	
40	1	3	0	0	-5.6592	12.3243	
41	1	5	0.265	0	-4.9518	13.5495	
42	1	3	0	0	-5.6592	14.7748	
43	1	5	0.265	0	-4.9518	16	
44	1	5	0.265	0	-5.6592	17.2253	
45	1	3	0	0	-4.9518	18.4505	
46	1	3	0	0	-5.6592	19.6758	
47	1	3	0	0	-4.9518	20.901	
48	1	3	0	0	-5.6592	22.1263	
49	1	3	0	0	-4.9518	23.3515	
50	1	3	0	0	-5.6592	24.5768	
51	1	13	0.15	0	-4.9518	25.802	
52	1	3	-0.115	0	-3.537	6.198	
53	1	3	0	0	-2.8296	7.4233	
54	1	3	0	0	-3.537	8.6485	
55	1	3	0	0	-2.8296	9.8738	
56	1	5	0.265	0	-3.537	11.099	
57	1	5	0.265	0	-2.8296	12.3243	
58	1	5	0.265	0	-3.537	13.5495	
59	1	5	0.265	0	-2.8296	14.7748	
60	1	3	0	0	-3.537	16	
61	1	3	0	0	-2.8296	17.2253	
62	1	3	0	0	-3.537	18.4505	
63	1	3	0	0	-2.8296	19.6758	
64	1	3	0	0	-3.537	20.901	
65	1	3	0	0	-2.8296	22.1263	
66	1	3	0	0	-3.537	23.3515	
67	1	3	0	0	-2.8296	24.5768	
68	1	3	-0.115	0	-3.537	25.802	
69	1	3	-0.115	0	-0.7074	6.198	
70	1	3	0	0	-1.4148	7.4233	
71	1	3	0	0	-0.7074	8.6485	
72	1	5	0.265	0	-1.4148	9.8738	
73	1	5	0.265	0	-0.7074	11.099	
74	1	3	0	0	-1.4148	12.3243	
75	1	5	0.265	0	-0.7074	13.5495	
76	1	3	0	0	-1.4148	14.7748	
77	1	3	0	0	-0.7074	16	
78	1	3	0	0	-1.4148	17.2253	
79	1	3	0	0	-0.7074	18.4505	
80	1	3	0	0	-1.4148	19.6758	
81	1	3	0	0	-0.7074	20.901	
82	1	3	0	0	-1.4148	22.1263	
83	1	3	0	0	-0.7074	23.3515	
84	1	3	0	0	-1.4148	24.5768	
85	1	13	0.15	0	-0.7074	25.802	
86	1	3	-0.115	0	0.7074	6.198	
87	1	3	0	0	1.4148	7.4233	
88	1	5	0.265	0	0.7074	8.6485	
89	1	5	0.265	0	1.4148	9.8738	
90	1	3	0	0	0.7074	11.099	
91	1	3	0	0	1.4148	12.3243	
92	1	5	0.265	0	0.7074	13.5495	
93	1	3	0	0	1.4148	14.7748	
94	1	3	0	0	0.7074	16	
95	1	3	0	0	1.4148	17.2253	
96	1	3	0	0	0.7074	18.4505	
97	1	3	0	0	1.4148	19.6758	
98	1	3	0	0	0.7074	20.901	
99	1	3	0	0	1.4148	22.1263	
100	1	3	0	0	0.7074	23.3515	
101	1	3	0	0	1.4148	24.5768	
102	1	3	-0.115	0	0.7074	25.802	
103	1	13	0.15	0	3.537	6.198	
104	1	3	0	0	2.8296	7.4233	
105	1	3	0	0	3.537	8.6485	
106	1	3	0	0	2.8296	9.8738	
107	1	5	0.265	0	3.537	11.099	
108	1	5	0.265	0	2.8296	12.3243	
109	1	3	0	0	3.537	13.5495	
110	1	3	0	0	2.8296	14.7748	
111	1	3	0	0	3.537	16	
112	1	3	0	0	2.8296	17.2253	
113	1	3	0	0	3.537	18.4505	
114	1	3	0	0	2.8296	19.6758	
115	1	3	0	0	3.537	20.901	
116	1	3	0	0	2.8296	22.1263	
117	1	3	0	0	3.537	23.3515	
118	1	3	0	0	2.8296	24.5768	
119	1	3	-0.115	0	3.537	25.802	
120	1	13	0.15	0	4.9518	6.198	
121	1	3	0	0	5.6592	7.4233	
122	1	3	0	0	4.9518	8.6485	
123	1	3	0	0	5.6592	9.8738	
124	1	3	0	0	4.9518	11.099	
125	1	5	0.265	0	5.6592	12.3243	
126	1	5	0.265	0	4.9518	13.5495	
127	1	3	0	0	5.6592	14.7748	
128	1	3	0	0	4.9518	16	
129	1	3	0	0	5.6592	17.2253	
130	1	3	0	0	4.9518	18.4505	
131	1	3	0	0	5.6592	19.6758	
132	1	3	0	0	4.9518	20.901	
133	1	3	0	0	5.6592	22.1263	
134	1	3	0	0	4.9518	23.3515	
135	1	3	0	0	5.6592	24.5768	
136	1	3	-0.115	0	4.9518	25.802	
137	1	3	-0.115	0	7.7814	6.198	
138	1	3	0	0	7.074	7.4233	
139	1	3	0	0	7.7814	8.6485	
140	1	3	0	0	7.074	9.8738	
141	1	3	0	0	7.7814	11.099	
142	1	3	0	0	7.074	12.3243	
143	1	3	0	0	7.7814	13.5495	
144	1	3	0	0	7.074	14.7748	
145	1	3	0	0	7.7814	16	
146	1	3	0	0	7.074	17.2253	
147	1	3	0	0	7.7814	18.4505	
148	1	3	0	0	7.074	19.6758	
149	1	3	0	0	7.7814	20.901	
150	1	3	0	0	7.074	22.1263	
151	1	3	0	0	7.7814	23.3515	
152	1	3	0	0	7.074	24.5768	
153	1	3	-0.115	0	7.7814	25.802	
154	1	3	-0.115	0	9.1962	6.198	
155	1	3	-0.115	0	9.9036	7.4233	
156	1	3	0	0	9.1962	8.6485	
157	1	3	-0.115	0	9.9036	9.8738	
158	1	3	0	0	9.1962	11.099	
159	1	3	-0.115	0	9.9036	12.3243	
160	1	3	0	0	9.1962	13.5495	
161	1	3	-0.115	0	9.9036	14.7748	
162	1	3	0	0	9.1962	16	
163	1	3	-0.115	0	9.9036	17.2253	
164	1	3	0	0	9.1962	18.4505	
165	1	13	0.15	0	9.9036	19.6758	
166	1	3	0	0	9.1962	20.901	
167	1	13	0.15	0	9.9036	22.1263	
168	1	3	0	0	9.1962	23.3515	
169	1	3	-0.115	0	9.9036	24.5768	
170	1	13	0.15	0	9.1962	25.802	
171	1	4	0.115	0	-10.9806	7.4233	
172	1	4	0.115	0	-10.9806	9.8738	
173	1	4	0.115	0	-10.9806	12.3243	
174	1	4	0.115	0	-10.9806	14.7748	
175	1	9	-0.585	0	-11.3036	17.2253	
176	1	4	0.115	0	-10.9806	19.6758	
177	1	9	-0.585	0	-11.3036	22.1263	
178	1	4	0.115	0	-10.9806	24.5768	
179	1	4	0.115	0	10.9806	7.4233	
180	1	4	0.115	0	10.9806	9.8738	
181	1	4	0.115	0	10.9806	12.3243	
182	1	4	0.115	0	10.9806	14.7748	
183	1	4	0.115	0	10.9806	17.2253	
184	1	9	-0.585	0	11.3036	19.6758	
185	1	9	-0.585	0	11.3036	22.1263	
186	1	4	0.115	0	10.9806	24.5768	
187	1	4	0.115	0	-9.7347	5.2653	
188	1	9	-0.585	0	-7.0814	4.9856	
189	1	4	0.115	0	-9.7347	26.7348	
190	1	4	0.115	0	-7.2429	26.7348	
191	1	9	-0.585	0	-5.6518	4.9856	
192	1	4	0.115	0	-2.9985	5.2653	
193	1	9	-0.585	0	-5.6518	27.0145	
194	1	4	0.115	0	-2.9985	26.7348	
195	1	4	0.115	0	-1.2459	5.2653	
196	1	4	0.115	0	1.2459	5.2653	
197	1	9	-0.585	0	-1.4074	27.0145	
198	1	4	0.115	0	1.2459	26.7348	
199	1	9	-0.585	0	2.837	4.9856	
200	1	9	-0.585	0	5.6518	4.9856	
201	1	4	0.115	0	2.9985	26.7348	
202	1	4	0.115	0	5.4903	26.7348	
203	1	4	0.115	0	7.2429	5.2653	
204	1	4	0.115	0	9.7347	5.2653	
205	1	4	0.115	0	7.2429	26.7348	
206	1	9	-0.585	0	9.8962	27.0145	
207	1	7	0.435	-0.7	-12.0036	17.2253	
208	1	7	0.435	-0.7	-12.0036	22.1263	
209	1	7	0.435	-0.7	12.0036	19.6758	
210	1	7	0.435	0.7	12.0036	22.1263	
211	1	7	0.435	-0.7	-6.7314	4.3793	
212	1	7	0.435	-0.7	-6.0018	4.3793	
213	1	7	0.435	-0.7	-6.0018	27.6207	
214	1	7	0.435	-0.7	-1.7574	27.6207	
215	1	7	0.435	0.7	2.487	4.3793	
216	1	7	0.435	0.7	6.0018	4.3793	
217	1	7	0.435	0.7	10.2462	27.6207	
218	1	6	-0.683	1.4	-4.9518	8.6485	
219	1	7	0.418	2.4	-4.9518	8.6485	
220	1	6	-0.683	-1.4	-5.6592	7.4233	
221	1	7	0.418	-2.4	-5.6592	7.4233	
222	1	6	-0.683	1.4	-5.6592	9.8738	
223	1	7	0.418	2.4	-5.6592	9.8738	
224	1	6	-0.683	-1.4	-1.4148	9.8738	
225	1	7	0.418	-2.4	-1.4148	9.8738	
226	1	6	-0.683	-1.4	-4.9518	11.099	
227	1	7	0.418	-2.4	-4.9518	11.099	
228	1	6	-0.683	1.4	-2.8296	12.3243	
229	1	7	0.418	2.4	-2.8296	12.3243	
230	1	6	-0.683	1.4	0.7074	8.6485	
231	1	7	0.418	2.4	0.7074	8.6485	
232	1	6	-0.683	-1.4	-0.7074	11.099	
233	1	7	0.418	-2.4	-0.7074	11.099	
234	1	6	-0.683	1.4	0.7074	13.5495	
235	1	7	0.418	2.4	0.7074	13.5495	
236	1	6	-0.683	-1.4	1.4148	9.8738	
237	1	7	0.418	-2.4	1.4148	9.8738	
238	1	6	-0.683	1.4	-0.7074	13.5495	
239	1	7	0.418	2.4	-0.7074	13.5495	
240	1	6	-0.683	-1.4	-3.537	13.5495	
241	1	7	0.418	-2.4	-3.537	13.5495	
242	1	6	-0.683	1.4	-4.9518	13.5495	
243	1	7	0.418	2.4	-4.9518	13.5495	
244	1	6	-0.683	-1.4	-4.9518	16	
245	1	7	0.418	-2.4	-4.9518	16	
246	1	6	-0.683	-1.4	-3.537	11.099	
247	1	7	0.418	-2.4	-3.537	11.099	
248	1	6	-0.683	-1.4	2.8296	12.3243	
249	1	7	0.418	-2.4	2.8296	12.3243	
250	1	6	-0.683	1.4	-7.7814	16	
251	1	7	0.418	2.4	-7.7814	16	
252	1	6	-0.683	1.4	3.537	11.099	
253	1	7	0.418	2.4	3.537	11.099	
254	1	6	-0.683	1.4	4.9518	13.5495	
255	1	7	0.418	2.4	4.9518	13.5495	
256	1	6	-0.683	-1.4	-7.074	17.2253	
257	1	7	0.418	-2.4	-7.074	17.2253	
258	1	6	-0.683	1.4	5.6592	12.3243	
259	1	7	0.418	2.4	5.6592	12.3243	
260	1	6	-0.683	1.4	-5.6592	17.2253	
261	1	7	0.418	2.4	-5.6592	17.2253	
262	1	6	-0.683	-1.4	-2.8296	14.7748	
263	1	7	0.418	-2.4	-2.8296	14.7748	
264	2	1	-0.8476	-26.3191	-26.3475	-46.0097	
265	2	2	0.4238	-25.3191	-26.3475	-46.0097	
266	2	2	0.4238	-26.6524	-25.4047	-46.0097	
267	3	1	-0.8476	-22.9782	-26.3248	-45.9986	
268	3	2	0.4238	-21.9782	-26.3248	-45.9986	
269	3	2	0.4238	-23.3115	-25.382	-45.9986	
270	4	1	-0.8476	-19.5475	-26.3031	-46.0316	
271	4	2	0.4238	-18.5475	-26.3031	-46.0316	
272	4	2	0.4238	-19.8808	-25.3603	-46.0316	
273	5	1	-0.8476	-16.123	-26.3539	-46.04	
274	5	2	0.4238	-15.123	-26.3539	-46.04	
275	5	2	0.4238	-16.4563	-25.4111	-46.04	
276	6	1	-0.8476	-12.7457	-26.3471	-45.9664	
277	6	2	0.4238	-11.7457	-26.3471	-45.9664	
278	6	2	0.4238	-13.079	-25.4043	-45.9664	
279	7	1	-0.8476	-9.3205	-26.3449	-45.9757	
280	7	2	0.4238	-8.3205	-26.3449	-45.9757	
281	7	2	0.4238	-9.6538	-25.4021	-45.9757	
282	8	1	-0.8476	-5.9791	-26.3263	-45.9665	
283	8	2	0.4238	-4.9791	-26.3263	-45.9665	
284	8	2	0.4238	-6.3124	-25.3835	-45.9665	
285	9	1	-0.8476	-2.5737	-26.3612	-46.049	
286	9	2	0.4238	-1.5737	-26.3612	-46.049	
287	9	2	0.4238	-2.907	-25.4184	-46.049	
288	10	1	-0.8476	0.84048	-26.3853	-45.9903	
289	10	2	0.4238	1.8405	-26.3853	-45.9903	
290	10	2	0.4238	0.50717	-25.4425	-45.9903	
291	11	1	-0.8476	4.2095	-26.3759	-46.0135	
292	11	2	0.4238	5.2095	-26.3759	-46.0135	
293	11	2	0.4238	3.8761	-25.4331	-46.0135	
294	12	1	-0.8476	7.6012	-26.3899	-45.9793	
295	12	2	0.4238	8.6012	-26.3899	-45.9793	
296	12	2	0.4238	7.2679	-25.4471	-45.9793	
297	13	1	-0.8476	11.0282	-26.3865	-45.9917	
298	13	2	0.4238	12.0282	-26.3865	-45.9917	
299	13	2	0.4238	10.6949	-25.4437	-45.9917	
300	14	1	-0.8476	14.4764	-26.3561	-46.041	
301	14	2	0.4238	15.4764	-26.3561	-46.041	
302	14	2	0.4238	14.1431	-25.4133	-46.041	
303	15	1	-0.8476	17.8906	-26.3378	-46.0192	
304	15	2	0.4238	18.8906	-26.3378	-46.0192	
305	15	2	0.4238	17.5573	-25.395	-46.0192	
306	16	1	-0.8476	21.2046	-26.3589	-45.992	
307	16	2	0.4238	22.2046	-26.3589	-45.992	
308	16	2	0.4238	20.8713	-25.4161	-45.992	
309	17	1	-0.8476	24.6422	-26.3569	-45.9893	
310	17	2	0.4238	25.6422	-26.3569	-45.9893	
311	17	2	0.4238	24.3089	-25.4141	-45.9893	
312	18	1	-0.8476	-26.3651	-22.9663	-46.0468	
313	18	2	0.4238	-25.3651	-22.9663	-46.0468	
314	18	2	0.4238	-26.6984	-22.0235	-46.0468	
315	19	1	-0.8476	-22.9065	-22.9143	-46.0202	
316	19	2	0.4238	-21.9065	-22.9143	-46.0202	
317	19	2	0.4238	-23.2399	-21.9715	-46.0202	
318	20	1	-0.8476	-19.5091	-22.9902	-45.9683	
319	20	2	0.4238	-18.5091	-22.9902	-45.9683	
320	20	2	0.4238	-19.8424	-22.0474	-45.9683	
321	21	1	-0.8476	-16.1395	-22.9985	-46.028	
322	21	2	0.4238	-15.1395	-22.9985	-46.028	
323	21	2	0.4238	-16.4728	-22.0557	-46.028	
324	22	1	-0.8476	-12.7109	-22.9577	-45.9722	
325	22	2	0.4238	-11.7109	-22.9577	-45.9722	
326	22	2	0.4238	-13.0442	-22.0149	-45.9722	
327	23	1	-0.8476	-9.3634	-22.9345	-46.0148	
328	23	2	0.4238	-8.3634	-22.9345	-46.0148	
329	23	2	0.4238	-9.6967	-21.9917	-46.0148	
330	24	1	-0.8476	-5.9112	-22.9637	-46.0343	
331	24	2	0.4238	-4.9112	-22.9637	-46.0343	
332	24	2	0.4238	-6.2445	-22.0209	-46.0343	
333	25	1	-0.8476	-2.5433	-22.9373	-45.9525	
334	25	2	0.4238	-1.5433	-22.9373	-45.9525	
335	25	2	0.4238	-2.8766	-21.9945	-45.9525	
336	26	1	-0.8476	0.87272	-22.9359	-45.9884	
337	26	2	0.4238	1.8727	-22.9359	-45.9884	
338	26	2	0.4238	0.53941	-21.9931	-45.9884	
339	27	1	-0.8476	4.2851	-22.9317	-45.9609	
340	27	2	0.4238	5.2851	-22.9317	-45.9609	
341	27	2	0.4238	3.9517	-21.9889	-45.9609	
342	28	1	-0.8476	7.6725	-22.9161	-46.0072	
343	28	2	0.4238	8.6725	-22.9161	-46.0072	
344	28	2	0.4238	7.3392	-21.9733	-46.0072	
345	29	1	-0.8476	11.0749	-22.9782	-45.9587	
346	29	2	0.4238	12.0749	-22.9782	-45.9587	
347	29	2	0.4238	10.7416	-22.0354	-45.9587	
348	30	1	-0.8476	14.4894	-22.9575	-46.0058	
349	30	2	0.4238	15.4894	-22.9575	-46.0058	
350	30	2	0.4238	14.1561	-22.0147	-46.0058	
351	31	1	-0.8476	17.8374	-22.9982	-45.9679	
352	31	2	0.4238	18.8374	-22.9982	-45.9679	
353	31	2	0.4238	17.5041	-22.0554	-45.9679	
354	32	1	-0.8476	21.2847	-22.9153	-45.9988	
355	32	2	0.4238	22.2847	-22.9153	-45.9988	
356	32	2	0.4238	20.9514	-21.9725	-45.9988	
357	33	1	-0.8476	24.6786	-22.953	-46.0322	
358	33	2	0.4238	25.6786	-22.953	-46.0322	
359	33	2	0.4238	24.3453	-22.0102	-46.0322	
360	34	1	-0.8476	-26.3287	-19.5147	-46.0072	
361	34	2	0.4238	-25.3287	-19.5147	-46.0072	
362	34	2	0.4238	-26.662	-18.5719	-46.0072	
363	35	1	-0.8476	-22.9992	-19.5564	-46.0203	
364	35	2	0.4238	-21.9992	-19.5564	-46.0203	
365	35	2	0.4238	-23.3325	-18.6136	-46.0203	
366	36	1	-0.8476	-19.5058	-19.5752	-46.0022	
367	36	2	0.4238	-18.5058	-19.5752	-46.0022	
368	36	2	0.4238	-19.8392	-18.6324	-46.0022	
369	37	1	-0.8476	-16.1479	-19.5312	-46.0194	
370	37	2	0.4238	-15.1479	-19.5312	-46.0194	
371	37	2	0.4238	-16.4812	-18.5884	-46.0194	
372	38	1	-0.8476	-12.7191	-19.5198	-45.9642	
373	38	2	0.4238	-11.7191	-19.5198	-45.9642	
374	38	2	0.4238	-13.0524	-18.577	-45.9642	
375	39	1	-0.8476	-9.3211	-19.51	-46.0452	
376	39	2	0.4238	-8.3211	-19.51	-46.0452	
377	39	2	0.4238	-9.6544	-18.5672	-46.0452	
378	40	1	-0.8476	-5.9303	-19.5319	-45.9733	
379	40	2	0.4238	-4.9303	-19.5319	-45.9733	
380	40	2	0.4238	-6.2637	-18.5891	-45.9733	
381	41	1	-0.8476	-2.5897	-19.519	-45.9551	
382	41	2	0.4238	-1.5897	-19.519	-45.9551	
383	41	2	0.4238	-2.923	-18.5762	-45.9551	
384	42	1	-0.8476	0.82938	-19.591	-46.0029	
385	42	2	0.4238	1.8294	-19.591	-46.0029	
386	42	2	0.4238	0.49607	-18.6482	-46.0029	
387	43	1	-0.8476	4.2088	-19.5714	-45.9771	
388	43	2	0.4238	5.2088	-19.5714	-45.9771	
389	43	2	0.4238	3.8755	-18.6286	-45.9771	
390	44	1	-0.8476	7.6568	-19.5414	-46.0156	
391	44	2	0.4238	8.6568	-19.5414	-46.0156	
392	44	2	0.4238	7.3235	-18.5986	-46.0156	
393	45	1	-0.8476	11.0422	-19.5252	-45.9963	
394	45	2	0.4238	12.0422	-19.5252	-45.9963	
395	45	2	0.4238	10.7089	-18.5824	-45.9963	
396	46	1	-0.8476	14.4502	-19.5254	-45.9847	
397	46	2	0.4238	15.4502	-19.5254	-45.9847	
398	46	2	0.4238	14.1169	-18.5826	-45.9847	
399	47	1	-0.8476	17.8495	-19.5328	-45.9652	
400	47	2	0.4238	18.8495	-19.5328	-45.9652	
401	47	2	0.4238	17.5162	-18.59	-45.9652	
402	48	1	-0.8476	21.2257	-19.5106	-45.9919	
403	48	2	0.4238	22.2257	-19.5106	-45.9919	
404	48	2	0.4238	20.8924	-18.5678	-45.9919	
405	49	1	-0.8476	24.6545	-19.5743	-45.9791	
406	49	2	0.4238	25.6545	-19.5743	-45.9791	
407	49	2	0.4238	24.3212	-18.6315	-45.9791	
408	50	1	-0.8476	-26.3626	-16.1382	-46.033	
409	50	2	0.4238	-25.3626	-16.1382	-46.033	
410	50	2	0.4238	-26.6959	-15.1954	-46.033	
411	51	1	-0.8476	-22.9885	-16.1329	-45.9741	
412	51	2	0.4238	-21.9885	-16.1329	-45.9741	
413	51	2	0.4238	-23.3218	-15.1901	-45.9741	
414	52	1	-0.8476	-19.5834	-16.1809	-45.9894	
415	52	2	0.4238	-18.5834	-16.1809	-45.9894	
416	52	2	0.4238	-19.9167	-15.2381	-45.9894	
417	53	1	-0.8476	-16.1501	-16.1535	-45.9836	
418	53	2	0.4238	-15.1501	-16.1535	-45.9836	
419	53	2	0.4238	-16.4835	-15.2107	-45.9836	
420	54	1	-0.8476	-12.7889	-16.1377	-46.0448	
421	54	2	0.4238	-11.7889	-16.1377	-46.0448	
422	54	2	0.4238	-13.1222	-15.1949	-46.0448	
423	55	1	-0.8476	-9.3749	-16.1119	-46.0029	
424	55	2	0.4238	-8.3749	-16.1119	-46.0029	
425	55	2	0.4238	-9.7082	-15.1691	-46.0029	
426	56	1	-0.8476	-5.9626	-16.1618	-46.0497	
427	56	2	0.4238	-4.9626	-16.1618	-46.0497	
428	56	2	0.4238	-6.2959	-15.219	-46.0497	
429	57	1	-0.8476	-2.5464	-16.161	-45.9909	
430	57	2	0.4238	-1.5464	-16.161	-45.9909	
431	57	2	0.4238	-2.8797	-15.2182	-45.9909	
432	58	1	-0.8476	0.88739	-16.1597	-46.0493	
433	58	2	0.4238	1.8874	-16.1597	-46.0493	
434	58	2	0.4238	0.55408	-15.2169	-46.0493	
435	59	1	-0.8476	4.2823	-16.1708	-45.977	
436	59	2	0.4238	5.2823	-16.1708	-45.977	
437	59	2	0.4238	3.949	-15.228	-45.977	
438	60	1	-0.8476	7.6943	-16.134	-46.0026	
439	60	2	0.4238	8.6943	-16.134	-46.0026	
440	60	2	0.4238	7.3609	-15.1912	-46.0026	
441	61	1	-0.8476	11.0288	-16.149	-46.0127	
442	61	2	0.4238	12.0288	-16.149	-46.0127	
443	61	2	0.4238	10.6955	-15.2062	-46.0127	
444	62	1	-0.8476	14.4398	-16.1769	-46.0421	
445	62	2	0.4238	15.4398	-16.1769	-46.0421	
446	62	2	0.4238	14.1065	-15.2341	-46.0421	
447	63	1	-0.8476	17.8119	-16.1269	-45.9684	
448	63	2	0.4238	18.8119	-16.1269	-45.9684	
449	63	2	0.4238	17.4786	-15.1841	-45.9684	
450	64	1	-0.8476	21.2897	-16.1774	-46.0079	
451	64	2	0.4238	22.2897	-16.1774	-46.0079	
452	64	2	0.4238	20.9564	-15.2346	-46.0079	
453	65	1	-0.8476	24.6458	-16.1336	-45.9569	
454	65	2	0.4238	25.6458	-16.1336	-45.9569	
455	65	2	0.4238	24.3125	-15.1908	-45.9569	
456	66	1	-0.8476	-26.3089	-12.7768	-46.0029	
457	66	2	0.4238	-25.3089	-12.7768	-46.0029	
458	66	2	0.4238	-26.6422	-11.834	-46.0029	
459	67	1	-0.8476	-22.9596	-12.738	-46.0194	
460	67	2	0.4238	-21.9596	-12.738	-46.0194	
461	67	2	0.4238	-23.2929	-11.7952	-46.0194	
462	68	1	-0.8476	-19.5697	-12.7666	-46.0147	
463	68	2	0.4238	-18.5697	-12.7666	-46.0147	
464	68	2	0.4238	-19.903	-11.8238	-46.0147	
465	69	1	-0.8476	-16.1486	-12.7644	-46.0072	
466	69	2	0.4238	-15.1486	-12.7644	-46.0072	
467	69	2	0.4238	-16.4819	-11.8216	-46.0072	
468	70	1	-0.8476	-12.7846	-12.7538	-46.0311	
469	70	2	0.4238	-11.7846	-12.7538	-46.0311	
470	70	2	0.4238	-13.1179	-11.811	-46.0311	
471	71	1	-0.8476	-9.3749	-12.7402	-46.0473	
472	71	2	0.4238	-8.3749	-12.7402	-46.0473	
473	71	2	0.4238	-9.7082	-11.7974	-46.0473	
474	72	1	-0.8476	-5.9399	-12.7957	-45.9528	
475	72	2	0.4238	-4.9399	-12.7957	-45.9528	
476	72	2	0.4238	-6.2732	-11.8529	-45.9528	
477	73	1	-0.8476	-2.5984	-12.7221	-45.9536	
478	73	2	0.4238	-1.5984	-12.7221	-45.9536	
479	73	2	0.4238	-2.9317	-11.7793	-45.9536	
480	74	1	-0.8476	0.80238	-12.7005	-45.9757	
481	74	2	0.4238	1.8024	-12.7005	-45.9757	
482	74	2	0.4238	0.46907	-11.7577	-45.9757	
483	75	1	-0.8476	4.2391	-12.7365	-46.0311	
484	75	2	0.4238	5.2391	-12.7365	-46.0311	
485	75	2	0.4238	3.9057	-11.7937	-46.0311	
486	76	1	-0.8476	7.6583	-12.7925	-45.9592	
487	76	2	0.4238	8.6583	-12.7925	-45.9592	
488	76	2	0.4238	7.325	-11.8497	-45.9592	
489	77	1	-0.8476	11.0659	-12.717	-45.9514	
490	77	2	0.4238	12.0659	-12.717	-45.9514	
491	77	2	0.4238	10.7326	-11.7742	-45.9514	
492	78	1	-0.8476	14.4557	-12.7679	-45.9941	
493	78	2	0.4238	15.4557	-12.7679	-45.9941	
494	78	2	0.4238	14.1224	-11.8251	-45.9941	
495	79	1	-0.8476	17.8443	-12.7916	-46.0303	
496	79	2	0.4238	18.8443	-12.7916	-46.0303	
497	79	2	0.4238	17.511	-11.8488	-46.0303	
498	80	1	-0.8476	21.2057	-12.7759	-45.981	
499	80	2	0.4238	22.2057	-12.7759	-45.981	
500	80	2	0.4238	20.8724	-11.8331	-45.981	
501	81	1	-0.8476	24.6623	-12.7532	-45.9749	
502	81	2	0.4238	25.6623	-12.7532	-45.9749	
503	81	2	0.4238	24.3289	-11.8104	-45.9749	
504	82	1	-0.8476	-26.3054	-9.3277	-45.9881	
505	82	2	0.4238	-25.3054	-9.3277	-45.9881	
506	82	2	0.4238	-26.6387	-8.3849	-45.9881	
507	83	1	-0.8476	-22.9817	-9.3455	-46.0151	
508	83	2	0.4238	-21.9817	-9.3455	-46.0151	
509	83	2	0.4238	-23.315	-8.4027	-46.0151	
510	84	1	-0.8476	-19.5336	-9.3553	-46.0185	
511	84	2	0.4238	-18.5336	-9.3553	-46.0185	
512	84	2	0.4238	-19.867	-8.4125	-46.0185	
513	85	1	-0.8476	-16.1996	-9.3342	-46.0194	
514	85	2	0.4238	-15.1996	-9.3342	-46.0194	
515	85	2	0.4238	-16.5329	-8.3914	-46.0194	
516	86	1	-0.8476	-12.7337	-9.3759	-46.0022	
517	86	2	0.4238	-11.7337	-9.3759	-46.0022	
518	86	2	0.4238	-13.067	-8.4331	-46.0022	
519	87	1	-0.8476	-9.3091	-9.3371	-46.0188	
520	87	2	0.4238	-8.3091	-9.3371	-46.0188	
521	87	2	0.4238	-9.6424	-8.3943	-46.0188	
522	88	1	-0.8476	-5.9608	-9.3239	-45.9972	
523	88	2	0.4238	-4.9608	-9.3239	-45.9972	
524	88	2	0.4238	-6.2941	-8.3811	-45.9972	
525	89	1	-0.8476	-2.5613	-9.3475	-46.0335	
526	89	2	0.4238	-1.5613	-9.3475	-46.0335	
527	89	2	0.4238	-2.8946	-8.4047	-46.0335	
528	90	1	-0.8476	0.89253	-9.3754	-45.9838	
529	90	2	0.4238	1.8925	-9.3754	-45.9838	
530	90	2	0.4238	0.55922	-8.4326	-45.9838	
531	91	1	-0.8476	4.21	-9.3284	-45.9957	
532	91	2	0.4238	5.21	-9.3284	-45.9957	
533	91	2	0.4238	3.8767	-8.3856	-45.9957	
534	92	1	-0.8476	7.6767	-9.3593	-45.9807	
535	92	2	0.4238	8.6767	-9.3593	-45.9807	
536	92	2	0.4238	7.3434	-8.4165	-45.9807	
537	93	1	-0.8476	11.0359	-9.3255	-45.9873	
538	93	2	0.4238	12.0359	-9.3255	-45.9873	
539	93	2	0.4238	10.7026	-8.3827	-45.9873	
540	94	1	-0.8476	14.4928	-9.3644	-46.0113	
541	94	2	0.4238	15.4928	-9.3644	-46.0113	
542	94	2	0.4238	14.1595	-8.4216	-46.0113	
543	95	1	-0.8476	17.8087	-9.3791	-46.0004	
544	95	2	0.4238	18.8087	-9.3791	-46.0004	
545	95	2	0.4238	17.4754	-8.4363	-46.0004	
546	96	1	-0.8476	21.2288	-9.3932	-46.0384	
547	96	2	0.4238	22.2288	-9.3932	-46.0384	
548	96	2	0.4238	20.8955	-8.4504	-46.0384	
549	97	1	-0.8476	24.625	-9.3261	-46.0102	
550	97	2	0.4238	25.625	-9.3261	-46.0102	
551	97	2	0.4238	24.2917	-8.3833	-46.0102	
552	98	1	-0.8476	-26.3904	-5.9417	-45.9835	
553	98	2	0.4238	-25.3904	-5.9417	-45.9835	
554	98	2	0.4238	-26.7237	-4.9989	-45.9835	
555	99	1	-0.8476	-22.9506	-5.9896	-46.007	
556	99	2	0.4238	-21.9506	-5.9896	-46.007	
557	99	2	0.4238	-23.2839	-5.0468	-46.007	
558	100	1	-0.8476	-19.5412	-5.9023	-45.9806	
559	100	2	0.4238	-18.5412	-5.9023	-45.9806	
560	100	2	0.4238	-19.8745	-4.9595	-45.9806	
561	101	1	-0.8476	-16.1411	-5.9327	-45.9746	
562	101	2	0.4238	-15.1411	-5.9327	-45.9746	
563	101	2	0.4238	-16.4744	-4.9899	-45.9746	
564	102	1	-0.8476	-12.7562	-5.9439	-45.9552	
565	102	2	0.4238	-11.7562	-5.9439	-45.9552	
566	102	2	0.4238	-13.0896	-5.0011	-45.9552	
567	103	1	-0.8476	-9.3964	-5.9954	-45.957	
568	103	2	0.4238	-8.3964	-5.9954	-45.957	
569	103	2	0.4238	-9.7298	-5.0526	-45.957	
570	104	1	-0.8476	-5.9464	-5.979	-46.0327	
571	104	2	0.4238	-4.9464	-5.979	-46.0327	
572	104	2	0.4238	-6.2797	-5.0362	-46.0327	
573	105	1	-0.8476	-2.5188	-5.9733	-45.9905	
574	105	2	0.4238	-1.5188	-5.9733	-45.9905	
575	105	2	0.4238	-2.8521	-5.0305	-45.9905	
576	106	1	-0.8476	0.84539	-5.9886	-46.04	
577	106	2	0.4238	1.8454	-5.9886	-46.04	
578	106	2	0.4238	0.51208	-5.0458	-46.04	
579	107	1	-0.8476	4.2312	-5.932	-45.9952	
580	107	2	0.4238	5.2312	-5.932	-45.9952	
581	107	2	0.4238	3.8979	-4.9892	-45.9952	
582	108	1	-0.8476	7.6391	-5.9129	-46.018	
583	108	2	0.4238	8.6391	-5.9129	-46.018	
584	108	2	0.4238	7.3058	-4.9701	-46.018	
585	109	1	-0.8476	11.082	-5.9719	-46.044	
586	109	2	0.4238	12.082	-5.9719	-46.044	
587	109	2	0.4238	10.7487	-5.0291	-46.044	
588	110	1	-0.8476	14.4158	-5.9617	-45.9775	
589	110	2	0.4238	15.4158	-5.9617	-45.9775	
590	110	2	0.4238	14.0825	-5.0189	-45.9775	
591	111	1	-0.8476	17.8942	-5.9863	-45.9579	
592	111	2	0.4238	18.8942	-5.9863	-45.9579	
593	111	2	0.4238	17.5609	-5.0435	-45.9579	
594	112	1	-0.8476	21.2043	-5.9175	-46.0282	
595	112	2	0.4238	22.2043	-5.9175	-46.0282	
596	112	2	0.4238	20.871	-4.9747	-46.0282	
597	113	1	-0.8476	24.6838	-5.9992	-46.0298	
598	113	2	0.4238	25.6838	-5.9992	-46.0298	
599	113	2	0.4238	24.3505	-5.0564	-46.0298	
600	114	1	-0.8476	-26.3302	-2.5611	-45.9923	
601	114	2	0.4238	-25.3302	-2.5611	-45.9923	
602	114	2	0.4238	-26.6635	-1.6183	-45.9923	
603	115	1	-0.8476	-22.9236	-2.5536	-46.0144	
604	115	2	0.4238	-21.9236	-2.5536	-46.0144	
605	115	2	0.4238	-23.2569	-1.6108	-46.0144	
606	116	1	-0.8476	-19.5926	-2.5532	-45.9878	
607	116	2	0.4238	-18.5926	-2.5532	-45.9878	
608	116	2	0.4238	-19.9259	-1.6104	-45.9878	
609	117	1	-0.8476	-16.1129	-2.526	-45.9838	
610	117	2	0.4238	-15.1129	-2.526	-45.9838	
611	117	2	0.4238	-16.4462	-1.5832	-45.9838	
612	118	1	-0.8476	-12.7659	-2.5624	-46.0014	
613	118	2	0.4238	-11.7659	-2.5624	-46.0014	
614	118	2	0.4238	-13.0993	-1.6196	-46.0014	
615	119	1	-0.8476	-9.366	-2.5164	-46.0047	
616	119	2	0.4238	-8.366	-2.5164	-46.0047	
617	119	2	0.4238	-9.6993	-1.5736	-46.0047	
618	120	1	-0.8476	-5.9953	-2.5158	-45.9711	
619	120	2	0.4238	-4.9953	-2.5158	-45.9711	
620	120	2	0.4238	-6.3286	-1.573	-45.9711	
621	121	1	-0.8476	-2.5481	-2.536	-46.0391	
622	121	2	0.4238	-1.5481	-2.536	-46.0391	
623	121	2	0.4238	-2.8814	-1.5932	-46.0391	
624	122	1	-0.8476	0.81233	-2.5439	-46.0037	
625	122	2	0.4238	1.8123	-2.5439	-46.0037	
626	122	2	0.4238	0.47902	-1.6011	-46.0037	
627	123	1	-0.8476	4.2705	-2.5275	-45.9985	
628	123	2	0.4238	5.2705	-2.5275	-45.9985	
629	123	2	0.4238	3.9372	-1.5847	-45.9985	
630	124	1	-0.8476	7.67	-2.5388	-45.9737	
631	124	2	0.4238	8.67	-2.5388	-45.9737	
632	124	2	0.4238	7.3367	-1.596	-45.9737	
633	125	1	-0.8476	11.0906	-2.5739	-45.9759	
634	125	2	0.4238	12.0906	-2.5739	-45.9759	
635	125	2	0.4238	10.7572	-1.6311	-45.9759	
636	126	1	-0.8476	14.4683	-2.5593	-46.0397	
637	126	2	0.4238	15.4683	-2.5593	-46.0397	
638	126	2	0.4238	14.135	-1.6165	-46.0397	
639	127	1	-0.8476	17.8156	-2.5729	-46.029	
640	127	2	0.4238	18.8156	-2.5729	-46.029	
641	127	2	0.4238	17.4823	-1.6301	-46.029	
642	128	1	-0.8476	21.2408	-2.5467	-46.0121	
643	128	2	0.4238	22.2408	-2.5467	-46.0121	
644	128	2	0.4238	20.9075	-1.6039	-46.0121	
645	129	1	-0.8476	24.6284	-2.5058	-46.0303	
646	129	2	0.4238	25.6284	-2.5058	-46.0303	
647	129	2	0.4238	24.2951	-1.563	-46.0303	
648	130	1	-0.8476	-26.3765	0.8784	-46.0228	
649	130	2	0.4238	-25.3765	0.8784	-46.0228	
650	130	2	0.4238	-26.7098	1.8212	-46.0228	
651	131	1	-0.8476	-22.9709	0.83158	-45.9552	
652	131	2	0.4238	-21.9709	0.83158	-45.9552	
653	131	2	0.4238	-23.3042	1.7744	-45.9552	
654	132	1	-0.8476	-19.5437	0.8501	-45.9859	
655	132	2	0.4238	-18.5437	0.8501	-45.9859	
656	132	2	0.4238	-19.877	1.7929	-45.9859	
657	133	1	-0.8476	-16.1235	0.82898	-45.9756	
658	133	2	0.4238	-15.1235	0.82898	-45.9756	
659	133	2	0.4238	-16.4568	1.7718	-45.9756	
660	134	1	-0.8476	-12.7971	0.82982	-45.9691	
661	134	2	0.4238	-11.7971	0.82982	-45.9691	
662	134	2	0.4238	-13.1304	1.7726	-45.9691	
663	135	1	-0.8476	-9.3868	0.85636	-46.0324	
664	135	2	0.4238	-8.3868	0.85636	-46.0324	
665	135	2	0.4238	-9.7201	1.7992	-46.0324	
666	136	1	-0.8476	-5.9118	0.84334	-46.047	
667	136	2	0.4238	-4.9118	0.84334	-46.047	
668	136	2	0.4238	-6.2451	1.7861	-46.047	
669	137	1	-0.8476	-2.5631	0.81444	-45.9678	
670	137	2	0.4238	-1.5631	0.81444	-45.9678	
671	137	2	0.4238	-2.8964	1.7572	-45.9678	
672	138	1	-0.8476	0.81286	0.8798	-45.9784	
673	138	2	0.4238	1.8129	0.8798	-45.9784	
674	138	2	0.4238	0.47955	1.8226	-45.9784	
675	139	1	-0.8476	4.2357	0.85824	-45.9538	
676	139	2	0.4238	5.2357	0.85824	-45.9538	
677	139	2	0.4238	3.9023	1.801	-45.9538	
678	140	1	-0.8476	7.6222	0.86778	-46.0398	
679	140	2	0.4238	8.6222	0.86778	-46.0398	
680	140	2	0.4238	7.2889	1.8106	-46.0398	
681	141	1	-0.8476	11.0259	0.85019	-46.0272	
682	141	2	0.4238	12.0259	0.85019	-46.0272	
683	141	2	0.4238	10.6926	1.793	-46.0272	
684	142	1	-0.8476	14.4958	0.86325	-45.9925	
685	142	2	0.4238	15.4958	0.86325	-45.9925	
686	142	2	0.4238	14.1625	1.8061	-45.9925	
687	143	1	-0.8476	17.8679	0.88029	-46.0361	
688	143	2	0.4238	18.8679	0.88029	-46.0361	
689	143	2	0.4238	17.5346	1.8231	-46.0361	
690	144	1	-0.8476	21.2332	0.87133	-46.0411	
691	144	2	0.4238	22.2332	0.87133	-46.0411	
692	144	2	0.4238	20.8999	1.8141	-46.0411	
693	145	1	-0.8476	24.6605	0.88228	-45.972	
694	145	2	0.4238	25.6605	0.88228	-45.972	
695	145	2	0.4238	24.3272	1.8251	-45.972	
696	146	1	-0.8476	-26.3651	4.2359	-46.0133	
697	146	2	0.4238	-25.3651	4.2359	-46.0133	
698	146	2	0.4238	-26.6984	5.1787	-46.0133	
699	147	1	-0.8476	-22.9859	4.2625	-46.0461	
700	147	2	0.4238	-21.9859	4.2625	-46.0461	
701	147	2	0.4238	-23.3192	5.2053	-46.0461	
702	148	1	-0.8476	-19.5103	4.2296	-46.0119	
703	148	2	0.4238	-18.5103	4.2296	-46.0119	
704	148	2	0.4238	-19.8437	5.1724	-46.0119	
705	149	1	-0.8476	-16.1065	4.2774	-45.9754	
706	149	2	0.4238	-15.1065	4.2774	-45.9754	
707	149	2	0.4238	-16.4398	5.2202	-45.9754	
708	150	1	-0.8476	-12.7872	4.2196	-45.9673	
709	150	2	0.4238	-11.7872	4.2196	-45.9673	
710	150	2	0.4238	-13.1205	5.1624	-45.9673	
711	151	1	-0.8476	-9.3206	4.2614	-46.0008	
712	151	2	0.4238	-8.3206	4.2614	-46.0008	
713	151	2	0.4238	-9.6539	5.2042	-46.0008	
714	152	1	-0.8476	-5.9099	4.2625	-46.0341	
715	152	2	0.4238	-4.9099	4.2625	-46.0341	
716	152	2	0.4238	-6.2432	5.2053	-46.0341	
717	153	1	-0.8476	-2.5165	4.2709	-45.9937	
718	153	2	0.4238	-1.5165	4.2709	-45.9937	
719	153	2	0.4238	-2.8498	5.2137	-45.9937	
720	154	1	-0.8476	0.811	4.222	-45.9656	
721	154	2	0.4238	1.811	4.222	-45.9656	
722	154	2	0.4238	0.47769	5.1648	-45.9656	
723	155	1	-0.8476	4.2398	4.2931	-46.0004	
724	155	2	0.4238	5.2398	4.2931	-46.0004	
725	155	2	0.4238	3.9065	5.2359	-46.0004	
726	156	1	-0.8476	7.6216	4.2665	-46.0018	
727	156	2	0.4238	8.6216	4.2665	-46.0018	
728	156	2	0.4238	7.2883	5.2093	-46.0018	
729	157	1	-0.8476	11.0695	4.2099	-46.0105	
730	157	2	0.4238	12.0695	4.2099	-46.0105	
731	157	2	0.4238	10.7361	5.1527	-46.0105	
732	158	1	-0.8476	14.4155	4.2368	-46.0222	
733	158	2	0.4238	15.4155	4.2368	-46.0222	
734	158	2	0.4238	14.0822	5.1796	-46.0222	
735	159	1	-0.8476	17.8989	4.2004	-46.0258	
736	159	2	0.4238	18.8989	4.2004	-46.0258	
737	159	2	0.4238	17.5656	5.1432	-46.0258	
738	160	1	-0.8476	21.245	4.2433	-45.9835	
739	160	2	0.4238	22.245	4.2433	-45.9835	
740	160	2	0.4238	20.9117	5.1861	-45.9835	
741	161	1	-0.8476	24.6884	4.2127	-46.0437	
742	161	2	0.4238	25.6884	4.2127	-46.0437	
743	161	2	0.4238	24.3551	5.1555	-46.0437	
744	162	1	-0.8476	-26.3255	7.6085	-46.0427	
745	162	2	0.4238	-25.3255	7.6085	-46.0427	
746	162	2	0.4238	-26.6588	8.5513	-46.0427	
747	163	1	-0.8476	-22.9728	7.6493	-46.0384	
748	163	2	0.4238	-21.9728	7.6493	-46.0384	
749	163	2	0.4238	-23.3061	8.5921	-46.0384	
750	164	1	-0.8476	-19.5547	7.6778	-45.9528	
751	164	2	0.4238	-18.5547	7.6778	-45.9528	
752	164	2	0.4238	-19.888	8.6206	-45.9528	
753	165	1	-0.8476	-16.1932	7.6043	-46.0367	
754	165	2	0.4238	-15.1932	7.6043	-46.0367	
755	165	2	0.4238	-16.5265	8.5471	-46.0367	
756	166	1	-0.8476	-12.701	7.6996	-45.9684	
757	166	2	0.4238	-11.701	7.6996	-45.9684	
758	166	2	0.4238	-13.0343	8.6424	-45.9684	
759	167	1	-0.8476	-9.3804	7.6481	-46.0029	
760	167	2	0.4238	-8.3804	7.6481	-46.0029	
761	167	2	0.4238	-9.7137	8.5909	-46.0029	
762	168	1	-0.8476	-5.9634	7.6313	-46.039	
763	168	2	0.4238	-4.9634	7.6313	-46.039	
764	168	2	0.4238	-6.2968	8.5741	-46.039	
765	169	1	-0.8476	-2.5127	7.6257	-46.0061	
766	169	2	0.4238	-1.5127	7.6257	-46.0061	
767	169	2	0.4238	-2.846	8.5685	-46.0061	
768	170	1	-0.8476	0.81204	7.6731	-46.0269	