# System

13763 atoms
9330 bonds
5113 angles
1193 dihedrals
147 impropers

15 atom types
8 bond types
14 angle types
15 dihedral types
1 improper types
extra bond per atom 2
extra angle per atom 1
extra special per atom 2
-27.2         27.2 xlo xhi
-27.2         27.2 ylo yhi
-50  50 zlo zhi

Atoms

1	1	3	-0.115	0	-9.1962	-25.802	
2	1	3	-0.115	0	-9.9036	-24.5767	
3	1	3	0	0	-9.1962	-23.3515	
4	1	3	-0.115	0	-9.9036	-22.1262	
5	1	3	0	0	-9.1962	-20.901	
6	1	3	-0.115	0	-9.9036	-19.6757	
7	1	3	0	0	-9.1962	-18.4505	
8	1	3	-0.115	0	-9.9036	-17.2252	
9	1	3	0	0	-9.1962	-16	
10	1	13	0.15	0	-9.9036	-14.7747	
11	1	3	0	0	-9.1962	-13.5495	
12	1	3	-0.115	0	-9.9036	-12.3242	
13	1	3	0	0	-9.1962	-11.099	
14	1	13	0.15	0	-9.9036	-9.8737	
15	1	3	0	0	-9.1962	-8.6485	
16	1	3	-0.115	0	-9.9036	-7.4232	
17	1	3	-0.115	0	-9.1962	-6.198	
18	1	13	0.15	0	-7.7814	-25.802	
19	1	3	0	0	-7.074	-24.5767	
20	1	3	0	0	-7.7814	-23.3515	
21	1	3	0	0	-7.074	-22.1262	
22	1	3	0	0	-7.7814	-20.901	
23	1	3	0	0	-7.074	-19.6757	
24	1	3	0	0	-7.7814	-18.4505	
25	1	3	0	0	-7.074	-17.2252	
26	1	5	0.265	0	-7.7814	-16	
27	1	5	0.265	0	-7.074	-14.7747	
28	1	3	0	0	-7.7814	-13.5495	
29	1	3	0	0	-7.074	-12.3242	
30	1	3	0	0	-7.7814	-11.099	
31	1	3	0	0	-7.074	-9.8737	
32	1	3	0	0	-7.7814	-8.6485	
33	1	3	0	0	-7.074	-7.4232	
34	1	3	-0.115	0	-7.7814	-6.198	
35	1	13	0.15	0	-4.9518	-25.802	
36	1	5	0.265	0	-5.6592	-24.5767	
37	1	5	0.265	0	-4.9518	-23.3515	
38	1	5	0.265	0	-5.6592	-22.1262	
39	1	5	0.265	0	-4.9518	-20.901	
40	1	3	0	0	-5.6592	-19.6757	
41	1	5	0.265	0	-4.9518	-18.4505	
42	1	3	0	0	-5.6592	-17.2252	
43	1	5	0.265	0	-4.9518	-16	
44	1	5	0.265	0	-5.6592	-14.7747	
45	1	3	0	0	-4.9518	-13.5495	
46	1	3	0	0	-5.6592	-12.3242	
47	1	3	0	0	-4.9518	-11.099	
48	1	3	0	0	-5.6592	-9.8737	
49	1	3	0	0	-4.9518	-8.6485	
50	1	3	0	0	-5.6592	-7.4232	
51	1	13	0.15	0	-4.9518	-6.198	
52	1	3	-0.115	0	-3.537	-25.802	
53	1	3	0	0	-2.8296	-24.5767	
54	1	3	0	0	-3.537	-23.3515	
55	1	3	0	0	-2.8296	-22.1262	
56	1	5	0.265	0	-3.537	-20.901	
57	1	5	0.265	0	-2.8296	-19.6757	
58	1	5	0.265	0	-3.537	-18.4505	
59	1	5	0.265	0	-2.8296	-17.2252	
60	1	3	0	0	-3.537	-16	
61	1	3	0	0	-2.8296	-14.7747	
62	1	3	0	0	-3.537	-13.5495	
63	1	3	0	0	-2.8296	-12.3242	
64	1	3	0	0	-3.537	-11.099	
65	1	3	0	0	-2.8296	-9.8737	
66	1	3	0	0	-3.537	-8.6485	
67	1	3	0	0	-2.8296	-7.4232	
68	1	3	-0.115	0	-3.537	-6.198	
69	1	3	-0.115	0	-0.7074	-25.802	
70	1	3	0	0	-1.4148	-24.5767	
71	1	3	0	0	-0.7074	-23.3515	
72	1	5	0.265	0	-1.4148	-22.1262	
73	1	5	0.265	0	-0.7074	-20.901	
74	1	3	0	0	-1.4148	-19.6757	
75	1	5	0.265	0	-0.7074	-18.4505	
76	1	3	0	0	-1.4148	-17.2252	
77	1	3	0	0	-0.7074	-16	
78	1	3	0	0	-1.4148	-14.7747	
79	1	3	0	0	-0.7074	-13.5495	
80	1	3	0	0	-1.4148	-12.3242	
81	1	3	0	0	-0.7074	-11.099	
82	1	3	0	0	-1.4148	-9.8737	
83	1	3	0	0	-0.7074	-8.6485	
84	1	3	0	0	-1.4148	-7.4232	
85	1	13	0.15	0	-0.7074	-6.198	
86	1	3	-0.115	0	0.7074	-25.802	
87	1	3	0	0	1.4148	-24.5767	
88	1	5	0.265	0	0.7074	-23.3515	
89	1	5	0.265	0	1.4148	-22.1262	
90	1	3	0	0	0.7074	-20.901	
91	1	3	0	0	1.4148	-19.6757	
92	1	5	0.265	0	0.7074	-18.4505	
93	1	3	0	0	1.4148	-17.2252	
94	1	3	0	0	0.7074	-16	
95	1	3	0	0	1.4148	-14.7747	
96	1	3	0	0	0.7074	-13.5495	
97	1	3	0	0	1.4148	-12.3242	
98	1	3	0	0	0.7074	-11.099	
99	1	3	0	0	1.4148	-9.8737	
100	1	3	0	0	0.7074	-8.6485	
101	1	3	0	0	1.4148	-7.4232	
102	1	3	-0.115	0	0.7074	-6.198	
103	1	13	0.15	0	3.537	-25.802	
104	1	3	0	0	2.8296	-24.5767	
105	1	3	0	0	3.537	-23.3515	
106	1	3	0	0	2.8296	-22.1262	
107	1	5	0.265	0	3.537	-20.901	
108	1	5	0.265	0	2.8296	-19.6757	
109	1	3	0	0	3.537	-18.4505	
110	1	3	0	0	2.8296	-17.2252	
111	1	3	0	0	3.537	-16	
112	1	3	0	0	2.8296	-14.7747	
113	1	3	0	0	3.537	-13.5495	
114	1	3	0	0	2.8296	-12.3242	
115	1	3	0	0	3.537	-11.099	
116	1	3	0	0	2.8296	-9.8737	
117	1	3	0	0	3.537	-8.6485	
118	1	3	0	0	2.8296	-7.4232	
119	1	3	-0.115	0	3.537	-6.198	
120	1	13	0.15	0	4.9518	-25.802	
121	1	3	0	0	5.6592	-24.5767	
122	1	3	0	0	4.9518	-23.3515	
123	1	3	0	0	5.6592	-22.1262	
124	1	3	0	0	4.9518	-20.901	
125	1	5	0.265	0	5.6592	-19.6757	
126	1	5	0.265	0	4.9518	-18.4505	
127	1	3	0	0	5.6592	-17.2252	
128	1	3	0	0	4.9518	-16	
129	1	3	0	0	5.6592	-14.7747	
130	1	3	0	0	4.9518	-13.5495	
131	1	3	0	0	5.6592	-12.3242	
132	1	3	0	0	4.9518	-11.099	
133	1	3	0	0	5.6592	-9.8737	
134	1	3	0	0	4.9518	-8.6485	
135	1	3	0	0	5.6592	-7.4232	
136	1	3	-0.115	0	4.9518	-6.198	
137	1	3	-0.115	0	7.7814	-25.802	
138	1	3	0	0	7.074	-24.5767	
139	1	3	0	0	7.7814	-23.3515	
140	1	3	0	0	7.074	-22.1262	
141	1	3	0	0	7.7814	-20.901	
142	1	3	0	0	7.074	-19.6757	
143	1	3	0	0	7.7814	-18.4505	
144	1	3	0	0	7.074	-17.2252	
145	1	3	0	0	7.7814	-16	
146	1	3	0	0	7.074	-14.7747	
147	1	3	0	0	7.7814	-13.5495	
148	1	3	0	0	7.074	-12.3242	
149	1	3	0	0	7.7814	-11.099	
150	1	3	0	0	7.074	-9.8737	
151	1	3	0	0	7.7814	-8.6485	
152	1	3	0	0	7.074	-7.4232	
153	1	3	-0.115	0	7.7814	-6.198	
154	1	3	-0.115	0	9.1962	-25.802	
155	1	3	-0.115	0	9.9036	-24.5767	
156	1	3	0	0	9.1962	-23.3515	
157	1	3	-0.115	0	9.9036	-22.1262	
158	1	3	0	0	9.1962	-20.901	
159	1	3	-0.115	0	9.9036	-19.6757	
160	1	3	0	0	9.1962	-18.4505	
161	1	3	-0.115	0	9.9036	-17.2252	
162	1	3	0	0	9.1962	-16	
163	1	3	-0.115	0	9.9036	-14.7747	
164	1	3	0	0	9.1962	-13.5495	
165	1	13	0.15	0	9.9036	-12.3242	
166	1	3	0	0	9.1962	-11.099	
167	1	13	0.15	0	9.9036	-9.8737	
168	1	3	0	0	9.1962	-8.6485	
169	1	3	-0.115	0	9.9036	-7.4232	
170	1	13	0.15	0	9.1962	-6.198	
171	1	4	0.115	0	-10.9806	-24.5767	
172	1	4	0.115	0	-10.9806	-22.1262	
173	1	4	0.115	0	-10.9806	-19.6757	
174	1	4	0.115	0	-10.9806	-17.2252	
175	1	9	-0.585	0	-11.3036	-14.7747	
176	1	4	0.115	0	-10.9806	-12.3242	
177	1	9	-0.585	0	-11.3036	-9.8737	
178	1	4	0.115	0	-10.9806	-7.4232	
179	1	4	0.115	0	10.9806	-24.5767	
180	1	4	0.115	0	10.9806	-22.1262	
181	1	4	0.115	0	10.9806	-19.6757	
182	1	4	0.115	0	10.9806	-17.2252	
183	1	4	0.115	0	10.9806	-14.7747	
184	1	9	-0.585	0	11.3036	-12.3242	
185	1	9	-0.585	0	11.3036	-9.8737	
186	1	4	0.115	0	10.9806	-7.4232	
187	1	4	0.115	0	-9.7347	-26.7347	
188	1	9	-0.585	0	-7.0814	-27.0144	
189	1	4	0.115	0	-9.7347	-5.2652	
190	1	4	0.115	0	-7.2429	-5.2652	
191	1	9	-0.585	0	-5.6518	-27.0144	
192	1	4	0.115	0	-2.9985	-26.7347	
193	1	9	-0.585	0	-5.6518	-4.9855	
194	1	4	0.115	0	-2.9985	-5.2652	
195	1	4	0.115	0	-1.2459	-26.7347	
196	1	4	0.115	0	1.2459	-26.7347	
197	1	9	-0.585	0	-1.4074	-4.9855	
198	1	4	0.115	0	1.2459	-5.2652	
199	1	9	-0.585	0	2.837	-27.0144	
200	1	9	-0.585	0	5.6518	-27.0144	
201	1	4	0.115	0	2.9985	-5.2652	
202	1	4	0.115	0	5.4903	-5.2652	
203	1	4	0.115	0	7.2429	-26.7347	
204	1	4	0.115	0	9.7347	-26.7347	
205	1	4	0.115	0	7.2429	-5.2652	
206	1	9	-0.585	0	9.8962	-4.9855	
207	1	7	0.435	-0.7	-12.0036	-14.7747	
208	1	7	0.435	-0.7	-12.0036	-9.8737	
209	1	7	0.435	-0.7	12.0036	-12.3242	
210	1	7	0.435	0.7	12.0036	-9.8737	
211	1	7	0.435	-0.7	-6.7314	-27.6207	
212	1	7	0.435	-0.7	-6.0018	-27.6207	
213	1	7	0.435	-0.7	-6.0018	-4.3793	
214	1	7	0.435	-0.7	-1.7574	-4.3793	
215	1	7	0.435	0.7	2.487	-27.6207	
216	1	7	0.435	0.7	6.0018	-27.6207	
217	1	7	0.435	0.7	10.2462	-4.3793	
218	1	6	-0.683	1.4	-4.9518	-23.3515	
219	1	7	0.418	2.4	-4.9518	-23.3515	
220	1	6	-0.683	-1.4	-5.6592	-24.5767	
221	1	7	0.418	-2.4	-5.6592	-24.5767	
222	1	6	-0.683	1.4	-5.6592	-22.1262	
223	1	7	0.418	2.4	-5.6592	-22.1262	
224	1	6	-0.683	-1.4	-1.4148	-22.1262	
225	1	7	0.418	-2.4	-1.4148	-22.1262	
226	1	6	-0.683	-1.4	-4.9518	-20.901	
227	1	7	0.418	-2.4	-4.9518	-20.901	
228	1	6	-0.683	1.4	-2.8296	-19.6757	
229	1	7	0.418	2.4	-2.8296	-19.6757	
230	1	6	-0.683	1.4	0.7074	-23.3515	
231	1	7	0.418	2.4	0.7074	-23.3515	
232	1	6	-0.683	-1.4	-0.7074	-20.901	
233	1	7	0.418	-2.4	-0.7074	-20.901	
234	1	6	-0.683	1.4	0.7074	-18.4505	
235	1	7	0.418	2.4	0.7074	-18.4505	
236	1	6	-0.683	-1.4	1.4148	-22.1262	
237	1	7	0.418	-2.4	1.4148	-22.1262	
238	1	6	-0.683	1.4	-0.7074	-18.4505	
239	1	7	0.418	2.4	-0.7074	-18.4505	
240	1	6	-0.683	-1.4	-3.537	-18.4505	
241	1	7	0.418	-2.4	-3.537	-18.4505	
242	1	6	-0.683	1.4	-4.9518	-18.4505	
243	1	7	0.418	2.4	-4.9518	-18.4505	
244	1	6	-0.683	-1.4	-4.9518	-16	
245	1	7	0.418	-2.4	-4.9518	-16	
246	1	6	-0.683	-1.4	-3.537	-20.901	
247	1	7	0.418	-2.4	-3.537	-20.901	
248	1	6	-0.683	-1.4	2.8296	-19.6757	
249	1	7	0.418	-2.4	2.8296	-19.6757	
250	1	6	-0.683	1.4	-7.7814	-16	
251	1	7	0.418	2.4	-7.7814	-16	
252	1	6	-0.683	1.4	3.537	-20.901	
253	1	7	0.418	2.4	3.537	-20.901	
254	1	6	-0.683	1.4	4.9518	-18.4505	
255	1	7	0.418	2.4	4.9518	-18.4505	
256	1	6	-0.683	-1.4	-7.074	-14.7747	
257	1	7	0.418	-2.4	-7.074	-14.7747	
258	1	6	-0.683	1.4	5.6592	-19.6757	
259	1	7	0.418	2.4	5.6592	-19.6757	
260	1	6	-0.683	1.4	-5.6592	-14.7747	
261	1	7	0.418	2.4	-5.6592	-14.7747	
262	1	6	-0.683	-1.4	-2.8296	-17.2252	
263	1	7	0.418	-2.4	-2.8296	-17.2252	
264	2	1	-0.8476	-26.3923	-26.3244	-46.0077	
265	2	2	0.4238	-25.3923	-26.3244	-46.0077	
266	2	2	0.4238	-26.7256	-25.3816	-46.0077	
267	3	1	-0.8476	-22.9548	-26.3145	-45.9735	
268	3	2	0.4238	-21.9548	-26.3145	-45.9735	
269	3	2	0.4238	-23.2881	-25.3717	-45.9735	
270	4	1	-0.8476	-19.535	-26.362	-46.0493	
271	4	2	0.4238	-18.535	-26.362	-46.0493	
272	4	2	0.4238	-19.8683	-25.4192	-46.0493	
273	5	1	-0.8476	-16.1366	-26.3928	-46.0092	
274	5	2	0.4238	-15.1366	-26.3928	-46.0092	
275	5	2	0.4238	-16.4699	-25.45	-46.0092	
276	6	1	-0.8476	-12.7064	-26.3622	-45.9534	
277	6	2	0.4238	-11.7064	-26.3622	-45.9534	
278	6	2	0.4238	-13.0398	-25.4194	-45.9534	
279	7	1	-0.8476	-9.3373	-26.3209	-46.0135	
280	7	2	0.4238	-8.3373	-26.3209	-46.0135	
281	7	2	0.4238	-9.6706	-25.3781	-46.0135	
282	8	1	-0.8476	-5.9168	-26.34	-45.9636	
283	8	2	0.4238	-4.9168	-26.34	-45.9636	
284	8	2	0.4238	-6.2502	-25.3972	-45.9636	
285	9	1	-0.8476	-2.5162	-26.3992	-46.0321	
286	9	2	0.4238	-1.5162	-26.3992	-46.0321	
287	9	2	0.4238	-2.8495	-25.4564	-46.0321	
288	10	1	-0.8476	0.88292	-26.3322	-46.0213	
289	10	2	0.4238	1.8829	-26.3322	-46.0213	
290	10	2	0.4238	0.54961	-25.3894	-46.0213	
291	11	1	-0.8476	4.2063	-26.302	-45.9575	
292	11	2	0.4238	5.2063	-26.302	-45.9575	
293	11	2	0.4238	3.873	-25.3592	-45.9575	
294	12	1	-0.8476	7.6516	-26.324	-45.9976	
295	12	2	0.4238	8.6516	-26.324	-45.9976	
296	12	2	0.4238	7.3182	-25.3812	-45.9976	
297	13	1	-0.8476	11.0517	-26.3072	-45.9886	
298	13	2	0.4238	12.0517	-26.3072	-45.9886	
299	13	2	0.4238	10.7184	-25.3644	-45.9886	
300	14	1	-0.8476	14.4941	-26.3206	-45.9888	
301	14	2	0.4238	15.4941	-26.3206	-45.9888	
302	14	2	0.4238	14.1608	-25.3778	-45.9888	
303	15	1	-0.8476	17.8749	-26.3775	-46.0151	
304	15	2	0.4238	18.8749	-26.3775	-46.0151	
305	15	2	0.4238	17.5416	-25.4347	-46.0151	
306	16	1	-0.8476	21.2745	-26.3821	-45.9628	
307	16	2	0.4238	22.2745	-26.3821	-45.9628	
308	16	2	0.4238	20.9412	-25.4393	-45.9628	
309	17	1	-0.8476	24.6254	-26.3338	-45.986	
310	17	2	0.4238	25.6254	-26.3338	-45.986	
311	17	2	0.4238	24.2921	-25.391	-45.986	
312	18	1	-0.8476	-26.356	-22.9329	-45.981	
313	18	2	0.4238	-25.356	-22.9329	-45.981	
314	18	2	0.4238	-26.6893	-21.9901	-45.981	
315	19	1	-0.8476	-22.9896	-22.9618	-46.0478	
316	19	2	0.4238	-21.9896	-22.9618	-46.0478	
317	19	2	0.4238	-23.3229	-22.019	-46.0478	
318	20	1	-0.8476	-19.5632	-22.9523	-45.9961	
319	20	2	0.4238	-18.5632	-22.9523	-45.9961	
320	20	2	0.4238	-19.8965	-22.0095	-45.9961	
321	21	1	-0.8476	-16.1457	-22.9753	-45.9761	
322	21	2	0.4238	-15.1457	-22.9753	-45.9761	
323	21	2	0.4238	-16.479	-22.0325	-45.9761	
324	22	1	-0.8476	-12.712	-22.9692	-45.9909	
325	22	2	0.4238	-11.712	-22.9692	-45.9909	
326	22	2	0.4238	-13.0453	-22.0264	-45.9909	
327	23	1	-0.8476	-9.3908	-22.9102	-46.0129	
328	23	2	0.4238	-8.3908	-22.9102	-46.0129	
329	23	2	0.4238	-9.7241	-21.9674	-46.0129	
330	24	1	-0.8476	-5.9832	-22.9149	-46.0037	
331	24	2	0.4238	-4.9832	-22.9149	-46.0037	
332	24	2	0.4238	-6.3165	-21.9721	-46.0037	
333	25	1	-0.8476	-2.53	-22.9543	-46.0121	
334	25	2	0.4238	-1.53	-22.9543	-46.0121	
335	25	2	0.4238	-2.8633	-22.0115	-46.0121	
336	26	1	-0.8476	0.88676	-22.9225	-45.9587	
337	26	2	0.4238	1.8868	-22.9225	-45.9587	
338	26	2	0.4238	0.55345	-21.9797	-45.9587	
339	27	1	-0.8476	4.2113	-22.9541	-45.9969	
340	27	2	0.4238	5.2113	-22.9541	-45.9969	
341	27	2	0.4238	3.878	-22.0113	-45.9969	
342	28	1	-0.8476	7.677	-22.9476	-46.0073	
343	28	2	0.4238	8.677	-22.9476	-46.0073	
344	28	2	0.4238	7.3437	-22.0048	-46.0073	
345	29	1	-0.8476	11.0453	-22.9094	-45.9564	
346	29	2	0.4238	12.0453	-22.9094	-45.9564	
347	29	2	0.4238	10.712	-21.9666	-45.9564	
348	30	1	-0.8476	14.4338	-22.9527	-46.0375	
349	30	2	0.4238	15.4338	-22.9527	-46.0375	
350	30	2	0.4238	14.1005	-22.0099	-46.0375	
351	31	1	-0.8476	17.871	-22.9993	-46.0492	
352	31	2	0.4238	18.871	-22.9993	-46.0492	
353	31	2	0.4238	17.5377	-22.0565	-46.0492	
354	32	1	-0.8476	21.2136	-22.9087	-45.9865	
355	32	2	0.4238	22.2136	-22.9087	-45.9865	
356	32	2	0.4238	20.8802	-21.9659	-45.9865	
357	33	1	-0.8476	24.6609	-22.913	-46.032	
358	33	2	0.4238	25.6609	-22.913	-46.032	
359	33	2	0.4238	24.3276	-21.9702	-46.032	
360	34	1	-0.8476	-26.3936	-19.5419	-45.9695	
361	34	2	0.4238	-25.3936	-19.5419	-45.9695	
362	34	2	0.4238	-26.7269	-18.5991	-45.9695	
363	35	1	-0.8476	-22.9977	-19.5416	-46.0244	
364	35	2	0.4238	-21.9977	-19.5416	-46.0244	
365	35	2	0.4238	-23.331	-18.5988	-46.0244	
366	36	1	-0.8476	-19.5574	-19.5081	-45.965	
367	36	2	0.4238	-18.5574	-19.5081	-45.965	
368	36	2	0.4238	-19.8907	-18.5653	-45.965	
369	37	1	-0.8476	-16.1248	-19.5429	-46.0001	
370	37	2	0.4238	-15.1248	-19.5429	-46.0001	
371	37	2	0.4238	-16.4581	-18.6001	-46.0001	
372	38	1	-0.8476	-12.7239	-19.5874	-46.0223	
373	38	2	0.4238	-11.7239	-19.5874	-46.0223	
374	38	2	0.4238	-13.0573	-18.6446	-46.0223	
375	39	1	-0.8476	-9.3678	-19.5876	-46.0455	
376	39	2	0.4238	-8.3678	-19.5876	-46.0455	
377	39	2	0.4238	-9.7011	-18.6448	-46.0455	
378	40	1	-0.8476	-5.9333	-19.5036	-45.996	
379	40	2	0.4238	-4.9333	-19.5036	-45.996	
380	40	2	0.4238	-6.2666	-18.5608	-45.996	
381	41	1	-0.8476	-2.5776	-19.5425	-45.9571	
382	41	2	0.4238	-1.5776	-19.5425	-45.9571	
383	41	2	0.4238	-2.9109	-18.5997	-45.9571	
384	42	1	-0.8476	0.86266	-19.5861	-46.0214	
385	42	2	0.4238	1.8627	-19.5861	-46.0214	
386	42	2	0.4238	0.52935	-18.6433	-46.0214	
387	43	1	-0.8476	4.2152	-19.512	-45.9703	
388	43	2	0.4238	5.2152	-19.512	-45.9703	
389	43	2	0.4238	3.8818	-18.5692	-45.9703	
390	44	1	-0.8476	7.6781	-19.5806	-46.0016	
391	44	2	0.4238	8.6781	-19.5806	-46.0016	
392	44	2	0.4238	7.3447	-18.6378	-46.0016	
393	45	1	-0.8476	11.0696	-19.5369	-45.9905	
394	45	2	0.4238	12.0696	-19.5369	-45.9905	
395	45	2	0.4238	10.7363	-18.5941	-45.9905	
396	46	1	-0.8476	14.4722	-19.5645	-46.0435	
397	46	2	0.4238	15.4722	-19.5645	-46.0435	
398	46	2	0.4238	14.1389	-18.6217	-46.0435	
399	47	1	-0.8476	17.8456	-19.5773	-45.9642	
400	47	2	0.4238	18.8456	-19.5773	-45.9642	
401	47	2	0.4238	17.5122	-18.6345	-45.9642	
402	48	1	-0.8476	21.2025	-19.5348	-46.0126	
403	48	2	0.4238	22.2025	-19.5348	-46.0126	
404	48	2	0.4238	20.8692	-18.592	-46.0126	
405	49	1	-0.8476	24.6343	-19.5651	-46.0433	
406	49	2	0.4238	25.6343	-19.5651	-46.0433	
407	49	2	0.4238	24.301	-18.6223	-46.0433	
408	50	1	-0.8476	-26.3869	-16.1486	-45.9779	
409	50	2	0.4238	-25.3869	-16.1486	-45.9779	
410	50	2	0.4238	-26.7202	-15.2058	-45.9779	
411	51	1	-0.8476	-22.9504	-16.155	-45.9777	
412	51	2	0.4238	-21.9504	-16.155	-45.9777	
413	51	2	0.4238	-23.2837	-15.2122	-45.9777	
414	52	1	-0.8476	-19.5661	-16.1274	-46.0483	
415	52	2	0.4238	-18.5661	-16.1274	-46.0483	
416	52	2	0.4238	-19.8994	-15.1846	-46.0483	
417	53	1	-0.8476	-16.1969	-16.1467	-46.0448	
418	53	2	0.4238	-15.1969	-16.1467	-46.0448	
419	53	2	0.4238	-16.5302	-15.2039	-46.0448	
420	54	1	-0.8476	-12.7798	-16.168	-45.9709	
421	54	2	0.4238	-11.7798	-16.168	-45.9709	
422	54	2	0.4238	-13.1131	-15.2252	-45.9709	
423	55	1	-0.8476	-9.3228	-16.1409	-45.9852	
424	55	2	0.4238	-8.3228	-16.1409	-45.9852	
425	55	2	0.4238	-9.6561	-15.1981	-45.9852	
426	56	1	-0.8476	-5.9207	-16.1696	-45.9503	
427	56	2	0.4238	-4.9207	-16.1696	-45.9503	
428	56	2	0.4238	-6.254	-15.2268	-45.9503	
429	57	1	-0.8476	-2.5909	-16.1616	-45.9533	
430	57	2	0.4238	-1.5909	-16.1616	-45.9533	
431	57	2	0.4238	-2.9242	-15.2188	-45.9533	
432	58	1	-0.8476	0.84396	-16.109	-46.0329	
433	58	2	0.4238	1.844	-16.109	-46.0329	
434	58	2	0.4238	0.51065	-15.1662	-46.0329	
435	59	1	-0.8476	4.2123	-16.1821	-46.0264	
436	59	2	0.4238	5.2123	-16.1821	-46.0264	
437	59	2	0.4238	3.879	-15.2393	-46.0264	
438	60	1	-0.8476	7.6007	-16.1068	-45.9651	
439	60	2	0.4238	8.6007	-16.1068	-45.9651	
440	60	2	0.4238	7.2674	-15.164	-45.9651	
441	61	1	-0.8476	11.0678	-16.1901	-45.9753	
442	61	2	0.4238	12.0678	-16.1901	-45.9753	
443	61	2	0.4238	10.7345	-15.2473	-45.9753	
444	62	1	-0.8476	14.4094	-16.1588	-45.9611	
445	62	2	0.4238	15.4094	-16.1588	-45.9611	
446	62	2	0.4238	14.0761	-15.216	-45.9611	
447	63	1	-0.8476	17.8156	-16.1127	-45.9503	
448	63	2	0.4238	18.8156	-16.1127	-45.9503	
449	63	2	0.4238	17.4823	-15.1699	-45.9503	
450	64	1	-0.8476	21.2532	-16.1727	-46.0038	
451	64	2	0.4238	22.2532	-16.1727	-46.0038	
452	64	2	0.4238	20.9199	-15.2299	-46.0038	
453	65	1	-0.8476	24.6981	-16.1743	-46.0114	
454	65	2	0.4238	25.6981	-16.1743	-46.0114	
455	65	2	0.4238	24.3648	-15.2315	-46.0114	
456	66	1	-0.8476	-26.3443	-12.7727	-46.0394	
457	66	2	0.4238	-25.3443	-12.7727	-46.0394	
458	66	2	0.4238	-26.6776	-11.8299	-46.0394	
459	67	1	-0.8476	-22.9324	-12.7825	-45.9613	
460	67	2	0.4238	-21.9324	-12.7825	-45.9613	
461	67	2	0.4238	-23.2657	-11.8397	-45.9613	
462	68	1	-0.8476	-19.5709	-12.7701	-45.9719	
463	68	2	0.4238	-18.5709	-12.7701	-45.9719	
464	68	2	0.4238	-19.9042	-11.8273	-45.9719	
465	69	1	-0.8476	-16.1929	-12.7606	-45.9927	
466	69	2	0.4238	-15.1929	-12.7606	-45.9927	
467	69	2	0.4238	-16.5262	-11.8178	-45.9927	
468	70	1	-0.8476	-12.7796	-12.7257	-46.0157	
469	70	2	0.4238	-11.7796	-12.7257	-46.0157	
470	70	2	0.4238	-13.1129	-11.7829	-46.0157	
471	71	1	-0.8476	-9.3754	-12.7488	-45.9701	
472	71	2	0.4238	-8.3754	-12.7488	-45.9701	
473	71	2	0.4238	-9.7087	-11.806	-45.9701	
474	72	1	-0.8476	-5.9873	-12.7509	-46.0063	
475	72	2	0.4238	-4.9873	-12.7509	-46.0063	
476	72	2	0.4238	-6.3206	-11.8081	-46.0063	
477	73	1	-0.8476	-2.5997	-12.7741	-46.005	
478	73	2	0.4238	-1.5997	-12.7741	-46.005	
479	73	2	0.4238	-2.933	-11.8313	-46.005	
480	74	1	-0.8476	0.87665	-12.7029	-46.0166	
481	74	2	0.4238	1.8766	-12.7029	-46.0166	
482	74	2	0.4238	0.54334	-11.7601	-46.0166	
483	75	1	-0.8476	4.2698	-12.7975	-45.9547	
484	75	2	0.4238	5.2698	-12.7975	-45.9547	
485	75	2	0.4238	3.9365	-11.8547	-45.9547	
486	76	1	-0.8476	7.6201	-12.7721	-45.9669	
487	76	2	0.4238	8.6201	-12.7721	-45.9669	
488	76	2	0.4238	7.2868	-11.8293	-45.9669	
489	77	1	-0.8476	11.0892	-12.7799	-46.0054	
490	77	2	0.4238	12.0892	-12.7799	-46.0054	
491	77	2	0.4238	10.7558	-11.8371	-46.0054	
492	78	1	-0.8476	14.4885	-12.747	-45.9737	
493	78	2	0.4238	15.4885	-12.747	-45.9737	
494	78	2	0.4238	14.1552	-11.8042	-45.9737	
495	79	1	-0.8476	17.8368	-12.7907	-46.0393	
496	79	2	0.4238	18.8368	-12.7907	-46.0393	
497	79	2	0.4238	17.5035	-11.8479	-46.0393	
498	80	1	-0.8476	21.2511	-12.7317	-45.9747	
499	80	2	0.4238	22.2511	-12.7317	-45.9747	
500	80	2	0.4238	20.9178	-11.7889	-45.9747	
501	81	1	-0.8476	24.6511	-12.7613	-46.0378	
502	81	2	0.4238	25.6511	-12.7613	-46.0378	
503	81	2	0.4238	24.3178	-11.8185	-46.0378	
504	82	1	-0.8476	-26.3787	-9.3814	-45.9905	
505	82	2	0.4238	-25.3787	-9.3814	-45.9905	
506	82	2	0.4238	-26.7121	-8.4386	-45.9905	
507	83	1	-0.8476	-22.9919	-9.3928	-46.0216	
508	83	2	0.4238	-21.9919	-9.3928	-46.0216	
509	83	2	0.4238	-23.3252	-8.45	-46.0216	
510	84	1	-0.8476	-19.5849	-9.3903	-45.9597	
511	84	2	0.4238	-18.5849	-9.3903	-45.9597	
512	84	2	0.4238	-19.9182	-8.4475	-45.9597	
513	85	1	-0.8476	-16.1403	-9.3066	-46.0141	
514	85	2	0.4238	-15.1403	-9.3066	-46.0141	
515	85	2	0.4238	-16.4736	-8.3638	-46.0141	
516	86	1	-0.8476	-12.7106	-9.3819	-45.9906	
517	86	2	0.4238	-11.7106	-9.3819	-45.9906	
518	86	2	0.4238	-13.0439	-8.4391	-45.9906	
519	87	1	-0.8476	-9.3351	-9.3551	-46.0331	
520	87	2	0.4238	-8.3351	-9.3551	-46.0331	
521	87	2	0.4238	-9.6684	-8.4123	-46.0331	
522	88	1	-0.8476	-5.9901	-9.3678	-46.0325	
523	88	2	0.4238	-4.9901	-9.3678	-46.0325	
524	88	2	0.4238	-6.3234	-8.425	-46.0325	
525	89	1	-0.8476	-2.5852	-9.3474	-45.961	
526	89	2	0.4238	-1.5852	-9.3474	-45.961	
527	89	2	0.4238	-2.9186	-8.4046	-45.961	
528	90	1	-0.8476	0.83278	-9.3953	-45.9547	
529	90	2	0.4238	1.8328	-9.3953	-45.9547	
530	90	2	0.4238	0.49947	-8.4525	-45.9547	
531	91	1	-0.8476	4.2917	-9.3661	-45.9852	
532	91	2	0.4238	5.2917	-9.3661	-45.9852	
533	91	2	0.4238	3.9584	-8.4233	-45.9852	
534	92	1	-0.8476	7.6514	-9.3478	-45.9947	
535	92	2	0.4238	8.6514	-9.3478	-45.9947	
536	92	2	0.4238	7.3181	-8.405	-45.9947	
537	93	1	-0.8476	11.0812	-9.3997	-45.9728	
538	93	2	0.4238	12.0812	-9.3997	-45.9728	
539	93	2	0.4238	10.7479	-8.4569	-45.9728	
540	94	1	-0.8476	14.4312	-9.3931	-46.0276	
541	94	2	0.4238	15.4312	-9.3931	-46.0276	
542	94	2	0.4238	14.0979	-8.4503	-46.0276	
543	95	1	-0.8476	17.8112	-9.327	-46.0033	
544	95	2	0.4238	18.8112	-9.327	-46.0033	
545	95	2	0.4238	17.4779	-8.3842	-46.0033	
546	96	1	-0.8476	21.2566	-9.3458	-45.9571	
547	96	2	0.4238	22.2566	-9.3458	-45.9571	
548	96	2	0.4238	20.9233	-8.403	-45.9571	
549	97	1	-0.8476	24.6587	-9.3517	-45.994	
550	97	2	0.4238	25.6587	-9.3517	-45.994	
551	97	2	0.4238	24.3254	-8.4089	-45.994	
552	98	1	-0.8476	-26.3801	-5.9231	-46.0095	
553	98	2	0.4238	-25.3801	-5.9231	-46.0095	
554	98	2	0.4238	-26.7134	-4.9803	-46.0095	
555	99	1	-0.8476	-22.9192	-5.9469	-45.9762	
556	99	2	0.4238	-21.9192	-5.9469	-45.9762	
557	99	2	0.4238	-23.2526	-5.0041	-45.9762	
558	100	1	-0.8476	-19.5476	-5.9319	-45.9637	
559	100	2	0.4238	-18.5476	-5.9319	-45.9637	
560	100	2	0.4238	-19.8809	-4.9891	-45.9637	
561	101	1	-0.8476	-16.165	-5.9936	-46.003	
562	101	2	0.4238	-15.165	-5.9936	-46.003	
563	101	2	0.4238	-16.4983	-5.0508	-46.003	
564	102	1	-0.8476	-12.7772	-5.9785	-45.9645	
565	102	2	0.4238	-11.7772	-5.9785	-45.9645	
566	102	2	0.4238	-13.1105	-5.0357	-45.9645	
567	103	1	-0.8476	-9.3212	-5.9849	-46.0222	
568	103	2	0.4238	-8.3212	-5.9849	-46.0222	
569	103	2	0.4238	-9.6545	-5.0421	-46.0222	
570	104	1	-0.8476	-5.9747	-5.9811	-45.9915	
571	104	2	0.4238	-4.9747	-5.9811	-45.9915	
572	104	2	0.4238	-6.308	-5.0383	-45.9915	
573	105	1	-0.8476	-2.556	-5.9871	-45.9757	
574	105	2	0.4238	-1.556	-5.9871	-45.9757	
575	105	2	0.4238	-2.8893	-5.0443	-45.9757	
576	106	1	-0.8476	0.85853	-5.9224	-46.002	
577	106	2	0.4238	1.8585	-5.9224	-46.002	
578	106	2	0.4238	0.52522	-4.9796	-46.002	
579	107	1	-0.8476	4.2896	-5.9884	-45.9927	
580	107	2	0.4238	5.2896	-5.9884	-45.9927	
581	107	2	0.4238	3.9563	-5.0456	-45.9927	
582	108	1	-0.8476	7.6551	-5.9468	-46.0222	
583	108	2	0.4238	8.6551	-5.9468	-46.0222	
584	108	2	0.4238	7.3218	-5.004	-46.0222	
585	109	1	-0.8476	11.0851	-5.9783	-46.0266	
586	109	2	0.4238	12.0851	-5.9783	-46.0266	
587	109	2	0.4238	10.7518	-5.0355	-46.0266	
588	110	1	-0.8476	14.4185	-5.9142	-46.0484	
589	110	2	0.4238	15.4185	-5.9142	-46.0484	
590	110	2	0.4238	14.0852	-4.9714	-46.0484	
591	111	1	-0.8476	17.8378	-5.9782	-45.9867	
592	111	2	0.4238	18.8378	-5.9782	-45.9867	
593	111	2	0.4238	17.5044	-5.0354	-45.9867	
594	112	1	-0.8476	21.2136	-5.9985	-46.0165	
595	112	2	0.4238	22.2136	-5.9985	-46.0165	
596	112	2	0.4238	20.8803	-5.0557	-46.0165	
597	113	1	-0.8476	24.6936	-5.928	-46.0049	
598	113	2	0.4238	25.6936	-5.928	-46.0049	
599	113	2	0.4238	24.3603	-4.9852	-46.0049	
600	114	1	-0.8476	-26.3973	-2.5861	-45.9548	
601	114	2	0.4238	-25.3973	-2.5861	-45.9548	
602	114	2	0.4238	-26.7306	-1.6433	-45.9548	
603	115	1	-0.8476	-22.9008	-2.5639	-46.0012	
604	115	2	0.4238	-21.9008	-2.5639	-46.0012	
605	115	2	0.4238	-23.2341	-1.6211	-46.0012	
606	116	1	-0.8476	-19.5248	-2.533	-45.9934	
607	116	2	0.4238	-18.5248	-2.533	-45.9934	
608	116	2	0.4238	-19.8581	-1.5902	-45.9934	
609	117	1	-0.8476	-16.1464	-2.5259	-46.0418	
610	117	2	0.4238	-15.1464	-2.5259	-46.0418	
611	117	2	0.4238	-16.4798	-1.5831	-46.0418	
612	118	1	-0.8476	-12.7252	-2.5926	-45.9978	
613	118	2	0.4238	-11.7252	-2.5926	-45.9978	
614	118	2	0.4238	-13.0585	-1.6498	-45.9978	
615	119	1	-0.8476	-9.3448	-2.5653	-45.9994	
616	119	2	0.4238	-8.3448	-2.5653	-45.9994	
617	119	2	0.4238	-9.6781	-1.6225	-45.9994	
618	120	1	-0.8476	-5.9975	-2.5735	-45.9575	
619	120	2	0.4238	-4.9975	-2.5735	-45.9575	
620	120	2	0.4238	-6.3308	-1.6307	-45.9575	
621	121	1	-0.8476	-2.5109	-2.5815	-45.9612	
622	121	2	0.4238	-1.5109	-2.5815	-45.9612	
623	121	2	0.4238	-2.8442	-1.6387	-45.9612	
624	122	1	-0.8476	0.85556	-2.5255	-45.9754	
625	122	2	0.4238	1.8556	-2.5255	-45.9754	
626	122	2	0.4238	0.52225	-1.5827	-45.9754	
627	123	1	-0.8476	4.2404	-2.5996	-46.0246	
628	123	2	0.4238	5.2404	-2.5996	-46.0246	
629	123	2	0.4238	3.9071	-1.6568	-46.0246	
630	124	1	-0.8476	7.6081	-2.584	-46.0164	
631	124	2	0.4238	8.6081	-2.584	-46.0164	
632	124	2	0.4238	7.2748	-1.6412	-46.0164	
633	125	1	-0.8476	11.0441	-2.5211	-46.033	
634	125	2	0.4238	12.0441	-2.5211	-46.033	
635	125	2	0.4238	10.7108	-1.5783	-46.033	
636	126	1	-0.8476	14.4306	-2.5193	-46.0266	
637	126	2	0.4238	15.4306	-2.5193	-46.0266	
638	126	2	0.4238	14.0973	-1.5765	-46.0266	
639	127	1	-0.8476	17.8801	-2.5106	-45.9688	
640	127	2	0.4238	18.8801	-2.5106	-45.9688	
641	127	2	0.4238	17.5468	-1.5678	-45.9688	
642	128	1	-0.8476	21.2532	-2.5339	-46.0264	
643	128	2	0.4238	22.2532	-2.5339	-46.0264	
644	128	2	0.4238	20.9199	-1.5911	-46.0264	
645	129	1	-0.8476	24.6594	-2.564	-45.9931	
646	129	2	0.4238	25.6594	-2.564	-45.9931	
647	129	2	0.4238	24.326	-1.6212	-45.9931	
648	130	1	-0.8476	-26.3014	0.87569	-45.9693	
649	130	2	0.4238	-25.3014	0.87569	-45.9693	
650	130	2	0.4238	-26.6347	1.8185	-45.9693	
651	131	1	-0.8476	-22.9733	0.87092	-46.0454	
652	131	2	0.4238	-21.9733	0.87092	-46.0454	
653	131	2	0.4238	-23.3066	1.8137	-46.0454	
654	132	1	-0.8476	-19.5326	0.88932	-46.0368	
655	132	2	0.4238	-18.5326	0.88932	-46.0368	
656	132	2	0.4238	-19.8659	1.8321	-46.0368	
657	133	1	-0.8476	-16.1285	0.86406	-46.0016	
658	133	2	0.4238	-15.1285	0.86406	-46.0016	
659	133	2	0.4238	-16.4618	1.8069	-46.0016	
660	134	1	-0.8476	-12.781	0.83313	-45.9756	
661	134	2	0.4238	-11.781	0.83313	-45.9756	
662	134	2	0.4238	-13.1143	1.7759	-45.9756	
663	135	1	-0.8476	-9.3434	0.84844	-45.9983	
664	135	2	0.4238	-8.3434	0.84844	-45.9983	
665	135	2	0.4238	-9.6767	1.7912	-45.9983	
666	136	1	-0.8476	-5.9139	0.80153	-46.0092	
667	136	2	0.4238	-4.9139	0.80153	-46.0092	
668	136	2	0.4238	-6.2472	1.7443	-46.0092	
669	137	1	-0.8476	-2.5934	0.88231	-45.9812	
670	137	2	0.4238	-1.5934	0.88231	-45.9812	
671	137	2	0.4238	-2.9267	1.8251	-45.9812	
672	138	1	-0.8476	0.86914	0.83048	-46.003	
673	138	2	0.4238	1.8691	0.83048	-46.003	
674	138	2	0.4238	0.53583	1.7733	-46.003	
675	139	1	-0.8476	4.2533	0.88567	-45.9515	
676	139	2	0.4238	5.2533	0.88567	-45.9515	
677	139	2	0.4238	3.92	1.8285	-45.9515	
678	140	1	-0.8476	7.6982	0.80677	-46.0101	
679	140	2	0.4238	8.6982	0.80677	-46.0101	
680	140	2	0.4238	7.3649	1.7496	-46.0101	
681	141	1	-0.8476	11.0584	0.82792	-46.0419	
682	141	2	0.4238	12.0584	0.82792	-46.0419	
683	141	2	0.4238	10.7251	1.7707	-46.0419	
684	142	1	-0.8476	14.4843	0.82249	-45.995	
685	142	2	0.4238	15.4843	0.82249	-45.995	
686	142	2	0.4238	14.151	1.7653	-45.995	
687	143	1	-0.8476	17.8385	0.81659	-45.9791	
688	143	2	0.4238	18.8385	0.81659	-45.9791	
689	143	2	0.4238	17.5052	1.7594	-45.9791	
690	144	1	-0.8476	21.2142	0.86292	-46.0133	
691	144	2	0.4238	22.2142	0.86292	-46.0133	
692	144	2	0.4238	20.8809	1.8057	-46.0133	
693	145	1	-0.8476	24.6683	0.85522	-45.9626	
694	145	2	0.4238	25.6683	0.85522	-45.9626	
695	145	2	0.4238	24.335	1.798	-45.9626	
696	146	1	-0.8476	-26.3324	4.229	-46.0185	
697	146	2	0.4238	-25.3324	4.229	-46.0185	
698	146	2	0.4238	-26.6657	5.1718	-46.0185	
699	147	1	-0.8476	-22.944	4.2455	-45.9643	
700	147	2	0.4238	-21.944	4.2455	-45.9643	
701	147	2	0.4238	-23.2773	5.1883	-45.9643	
702	148	1	-0.8476	-19.5007	4.2201	-46.0063	
703	148	2	0.4238	-18.5007	4.2201	-46.0063	
704	148	2	0.4238	-19.834	5.1629	-46.0063	
705	149	1	-0.8476	-16.1597	4.2575	-45.952	
706	149	2	0.4238	-15.1597	4.2575	-45.952	
707	149	2	0.4238	-16.493	5.2003	-45.952	
708	150	1	-0.8476	-12.7398	4.2223	-45.9958	
709	150	2	0.4238	-11.7398	4.2223	-45.9958	
710	150	2	0.4238	-13.0731	5.1651	-45.9958	
711	151	1	-0.8476	-9.3975	4.2216	-46.0469	
712	151	2	0.4238	-8.3975	4.2216	-46.0469	
713	151	2	0.4238	-9.7308	5.1644	-46.0469	
714	152	1	-0.8476	-5.9616	4.2627	-45.9651	
715	152	2	0.4238	-4.9616	4.2627	-45.9651	
716	152	2	0.4238	-6.2949	5.2055	-45.9651	
717	153	1	-0.8476	-2.5007	4.2261	-45.9862	
718	153	2	0.4238	-1.5007	4.2261	-45.9862	
719	153	2	0.4238	-2.8341	5.1689	-45.9862	
720	154	1	-0.8476	0.81233	4.2907	-46.0184	
721	154	2	0.4238	1.8123	4.2907	-46.0184	
722	154	2	0.4238	0.47902	5.2335	-46.0184	
723	155	1	-0.8476	4.2822	4.2161	-45.9656	
724	155	2	0.4238	5.2822	4.2161	-45.9656	
725	155	2	0.4238	3.9489	5.1589	-45.9656	
726	156	1	-0.8476	7.6816	4.2383	-45.9687	
727	156	2	0.4238	8.6816	4.2383	-45.9687	
728	156	2	0.4238	7.3483	5.1811	-45.9687	
729	157	1	-0.8476	11.0259	4.23	-46.0471	
730	157	2	0.4238	12.0259	4.23	-46.0471	
731	157	2	0.4238	10.6926	5.1728	-46.0471	
732	158	1	-0.8476	14.4737	4.2247	-46.0047	
733	158	2	0.4238	15.4737	4.2247	-46.0047	
734	158	2	0.4238	14.1404	5.1675	-46.0047	
735	159	1	-0.8476	17.8132	4.2701	-45.981	
736	159	2	0.4238	18.8132	4.2701	-45.981	
737	159	2	0.4238	17.4799	5.2129	-45.981	
738	160	1	-0.8476	21.236	4.2794	-46.0075	
739	160	2	0.4238	22.236	4.2794	-46.0075	
740	160	2	0.4238	20.9027	5.2222	-46.0075	
741	161	1	-0.8476	24.6551	4.2769	-46.0435	
742	161	2	0.4238	25.6551	4.2769	-46.0435	
743	161	2	0.4238	24.3218	5.2197	-46.0435	
744	162	1	-0.8476	-26.3773	7.6053	-46.0069	
745	162	2	0.4238	-25.3773	7.6053	-46.0069	
746	162	2	0.4238	-26.7106	8.5481	-46.0069	
747	163	1	-0.8476	-22.9922	7.6085	-46.0359	
748	163	2	0.4238	-21.9922	7.6085	-46.0359	
749	163	2	0.4238	-23.3255	8.5513	-46.0359	
750	164	1	-0.8476	-19.5302	7.6169	-45.9717	
751	164	2	0.4238	-18.5302	7.6169	-45.9717	
752	164	2	0.4238	-19.8636	8.5597	-45.9717	
753	165	1	-0.8476	-16.1983	7.6575	-46.031	
754	165	2	0.4238	-15.1983	7.6575	-46.031	
755	165	2	0.4238	-16.5317	8.6003	-46.031	
756	166	1	-0.8476	-12.7007	7.6523	-46.0203	
757	166	2	0.4238	-11.7007	7.6523	-46.0203	
758	166	2	0.4238	-13.034	8.5951	-46.0203	
759	167	1	-0.8476	-9.3919	7.6621	-45.9975	
760	167	2	0.4238	-8.3919	7.6621	-45.9975	
761	167	2	0.4238	-9.7252	8.6049	-45.9975	
762	168	1	-0.8476	-5.9613	7.6005	-45.9984	