# System

13763 atoms
9330 bonds
5113 angles
1193 dihedrals
147 impropers

15 atom types
8 bond types
14 angle types
15 dihedral types
1 improper types
extra bond per atom 2
extra angle per atom 1
extra special per atom 2
-27.2         27.2 xlo xhi
-27.2         27.2 ylo yhi
-50  50 zlo zhi

Atoms

1	1	3	-0.115	0	-9.1962	-17.802	
2	1	3	-0.115	0	-9.9036	-16.5767	
3	1	3	0	0	-9.1962	-15.3515	
4	1	3	-0.115	0	-9.9036	-14.1262	
5	1	3	0	0	-9.1962	-12.901	
6	1	3	-0.115	0	-9.9036	-11.6757	
7	1	3	0	0	-9.1962	-10.4505	
8	1	3	-0.115	0	-9.9036	-9.2252	
9	1	3	0	0	-9.1962	-8	
10	1	13	0.15	0	-9.9036	-6.7747	
11	1	3	0	0	-9.1962	-5.5495	
12	1	3	-0.115	0	-9.9036	-4.3242	
13	1	3	0	0	-9.1962	-3.099	
14	1	13	0.15	0	-9.9036	-1.8737	
15	1	3	0	0	-9.1962	-0.64852	
16	1	3	-0.115	0	-9.9036	0.57678	
17	1	3	-0.115	0	-9.1962	1.802	
18	1	13	0.15	0	-7.7814	-17.802	
19	1	3	0	0	-7.074	-16.5767	
20	1	3	0	0	-7.7814	-15.3515	
21	1	3	0	0	-7.074	-14.1262	
22	1	3	0	0	-7.7814	-12.901	
23	1	3	0	0	-7.074	-11.6757	
24	1	3	0	0	-7.7814	-10.4505	
25	1	3	0	0	-7.074	-9.2252	
26	1	5	0.265	0	-7.7814	-8	
27	1	5	0.265	0	-7.074	-6.7747	
28	1	3	0	0	-7.7814	-5.5495	
29	1	3	0	0	-7.074	-4.3242	
30	1	3	0	0	-7.7814	-3.099	
31	1	3	0	0	-7.074	-1.8737	
32	1	3	0	0	-7.7814	-0.64852	
33	1	3	0	0	-7.074	0.57678	
34	1	3	-0.115	0	-7.7814	1.802	
35	1	13	0.15	0	-4.9518	-17.802	
36	1	5	0.265	0	-5.6592	-16.5767	
37	1	5	0.265	0	-4.9518	-15.3515	
38	1	5	0.265	0	-5.6592	-14.1262	
39	1	5	0.265	0	-4.9518	-12.901	
40	1	3	0	0	-5.6592	-11.6757	
41	1	5	0.265	0	-4.9518	-10.4505	
42	1	3	0	0	-5.6592	-9.2252	
43	1	5	0.265	0	-4.9518	-8	
44	1	5	0.265	0	-5.6592	-6.7747	
45	1	3	0	0	-4.9518	-5.5495	
46	1	3	0	0	-5.6592	-4.3242	
47	1	3	0	0	-4.9518	-3.099	
48	1	3	0	0	-5.6592	-1.8737	
49	1	3	0	0	-4.9518	-0.64852	
50	1	3	0	0	-5.6592	0.57678	
51	1	13	0.15	0	-4.9518	1.802	
52	1	3	-0.115	0	-3.537	-17.802	
53	1	3	0	0	-2.8296	-16.5767	
54	1	3	0	0	-3.537	-15.3515	
55	1	3	0	0	-2.8296	-14.1262	
56	1	5	0.265	0	-3.537	-12.901	
57	1	5	0.265	0	-2.8296	-11.6757	
58	1	5	0.265	0	-3.537	-10.4505	
59	1	5	0.265	0	-2.8296	-9.2252	
60	1	3	0	0	-3.537	-8	
61	1	3	0	0	-2.8296	-6.7747	
62	1	3	0	0	-3.537	-5.5495	
63	1	3	0	0	-2.8296	-4.3242	
64	1	3	0	0	-3.537	-3.099	
65	1	3	0	0	-2.8296	-1.8737	
66	1	3	0	0	-3.537	-0.64852	
67	1	3	0	0	-2.8296	0.57678	
68	1	3	-0.115	0	-3.537	1.802	
69	1	3	-0.115	0	-0.7074	-17.802	
70	1	3	0	0	-1.4148	-16.5767	
71	1	3	0	0	-0.7074	-15.3515	
72	1	5	0.265	0	-1.4148	-14.1262	
73	1	5	0.265	0	-0.7074	-12.901	
74	1	3	0	0	-1.4148	-11.6757	
75	1	5	0.265	0	-0.7074	-10.4505	
76	1	3	0	0	-1.4148	-9.2252	
77	1	3	0	0	-0.7074	-8	
78	1	3	0	0	-1.4148	-6.7747	
79	1	3	0	0	-0.7074	-5.5495	
80	1	3	0	0	-1.4148	-4.3242	
81	1	3	0	0	-0.7074	-3.099	
82	1	3	0	0	-1.4148	-1.8737	
83	1	3	0	0	-0.7074	-0.64852	
84	1	3	0	0	-1.4148	0.57678	
85	1	13	0.15	0	-0.7074	1.802	
86	1	3	-0.115	0	0.7074	-17.802	
87	1	3	0	0	1.4148	-16.5767	
88	1	5	0.265	0	0.7074	-15.3515	
89	1	5	0.265	0	1.4148	-14.1262	
90	1	3	0	0	0.7074	-12.901	
91	1	3	0	0	1.4148	-11.6757	
92	1	5	0.265	0	0.7074	-10.4505	
93	1	3	0	0	1.4148	-9.2252	
94	1	3	0	0	0.7074	-8	
95	1	3	0	0	1.4148	-6.7747	
96	1	3	0	0	0.7074	-5.5495	
97	1	3	0	0	1.4148	-4.3242	
98	1	3	0	0	0.7074	-3.099	
99	1	3	0	0	1.4148	-1.8737	
100	1	3	0	0	0.7074	-0.64852	
101	1	3	0	0	1.4148	0.57678	
102	1	3	-0.115	0	0.7074	1.802	
103	1	13	0.15	0	3.537	-17.802	
104	1	3	0	0	2.8296	-16.5767	
105	1	3	0	0	3.537	-15.3515	
106	1	3	0	0	2.8296	-14.1262	
107	1	5	0.265	0	3.537	-12.901	
108	1	5	0.265	0	2.8296	-11.6757	
109	1	3	0	0	3.537	-10.4505	
110	1	3	0	0	2.8296	-9.2252	
111	1	3	0	0	3.537	-8	
112	1	3	0	0	2.8296	-6.7747	
113	1	3	0	0	3.537	-5.5495	
114	1	3	0	0	2.8296	-4.3242	
115	1	3	0	0	3.537	-3.099	
116	1	3	0	0	2.8296	-1.8737	
117	1	3	0	0	3.537	-0.64852	
118	1	3	0	0	2.8296	0.57678	
119	1	3	-0.115	0	3.537	1.802	
120	1	13	0.15	0	4.9518	-17.802	
121	1	3	0	0	5.6592	-16.5767	
122	1	3	0	0	4.9518	-15.3515	
123	1	3	0	0	5.6592	-14.1262	
124	1	3	0	0	4.9518	-12.901	
125	1	5	0.265	0	5.6592	-11.6757	
126	1	5	0.265	0	4.9518	-10.4505	
127	1	3	0	0	5.6592	-9.2252	
128	1	3	0	0	4.9518	-8	
129	1	3	0	0	5.6592	-6.7747	
130	1	3	0	0	4.9518	-5.5495	
131	1	3	0	0	5.6592	-4.3242	
132	1	3	0	0	4.9518	-3.099	
133	1	3	0	0	5.6592	-1.8737	
134	1	3	0	0	4.9518	-0.64852	
135	1	3	0	0	5.6592	0.57678	
136	1	3	-0.115	0	4.9518	1.802	
137	1	3	-0.115	0	7.7814	-17.802	
138	1	3	0	0	7.074	-16.5767	
139	1	3	0	0	7.7814	-15.3515	
140	1	3	0	0	7.074	-14.1262	
141	1	3	0	0	7.7814	-12.901	
142	1	3	0	0	7.074	-11.6757	
143	1	3	0	0	7.7814	-10.4505	
144	1	3	0	0	7.074	-9.2252	
145	1	3	0	0	7.7814	-8	
146	1	3	0	0	7.074	-6.7747	
147	1	3	0	0	7.7814	-5.5495	
148	1	3	0	0	7.074	-4.3242	
149	1	3	0	0	7.7814	-3.099	
150	1	3	0	0	7.074	-1.8737	
151	1	3	0	0	7.7814	-0.64852	
152	1	3	0	0	7.074	0.57678	
153	1	3	-0.115	0	7.7814	1.802	
154	1	3	-0.115	0	9.1962	-17.802	
155	1	3	-0.115	0	9.9036	-16.5767	
156	1	3	0	0	9.1962	-15.3515	
157	1	3	-0.115	0	9.9036	-14.1262	
158	1	3	0	0	9.1962	-12.901	
159	1	3	-0.115	0	9.9036	-11.6757	
160	1	3	0	0	9.1962	-10.4505	
161	1	3	-0.115	0	9.9036	-9.2252	
162	1	3	0	0	9.1962	-8	
163	1	3	-0.115	0	9.9036	-6.7747	
164	1	3	0	0	9.1962	-5.5495	
165	1	13	0.15	0	9.9036	-4.3242	
166	1	3	0	0	9.1962	-3.099	
167	1	13	0.15	0	9.9036	-1.8737	
168	1	3	0	0	9.1962	-0.64852	
169	1	3	-0.115	0	9.9036	0.57678	
170	1	13	0.15	0	9.1962	1.802	
171	1	4	0.115	0	-10.9806	-16.5767	
172	1	4	0.115	0	-10.9806	-14.1262	
173	1	4	0.115	0	-10.9806	-11.6757	
174	1	4	0.115	0	-10.9806	-9.2252	
175	1	9	-0.585	0	-11.3036	-6.7747	
176	1	4	0.115	0	-10.9806	-4.3242	
177	1	9	-0.585	0	-11.3036	-1.8737	
178	1	4	0.115	0	-10.9806	0.57678	
179	1	4	0.115	0	10.9806	-16.5767	
180	1	4	0.115	0	10.9806	-14.1262	
181	1	4	0.115	0	10.9806	-11.6757	
182	1	4	0.115	0	10.9806	-9.2252	
183	1	4	0.115	0	10.9806	-6.7747	
184	1	9	-0.585	0	11.3036	-4.3242	
185	1	9	-0.585	0	11.3036	-1.8737	
186	1	4	0.115	0	10.9806	0.57678	
187	1	4	0.115	0	-9.7347	-18.7347	
188	1	9	-0.585	0	-7.0814	-19.0144	
189	1	4	0.115	0	-9.7347	2.7348	
190	1	4	0.115	0	-7.2429	2.7348	
191	1	9	-0.585	0	-5.6518	-19.0144	
192	1	4	0.115	0	-2.9985	-18.7347	
193	1	9	-0.585	0	-5.6518	3.0145	
194	1	4	0.115	0	-2.9985	2.7348	
195	1	4	0.115	0	-1.2459	-18.7347	
196	1	4	0.115	0	1.2459	-18.7347	
197	1	9	-0.585	0	-1.4074	3.0145	
198	1	4	0.115	0	1.2459	2.7348	
199	1	9	-0.585	0	2.837	-19.0144	
200	1	9	-0.585	0	5.6518	-19.0144	
201	1	4	0.115	0	2.9985	2.7348	
202	1	4	0.115	0	5.4903	2.7348	
203	1	4	0.115	0	7.2429	-18.7347	
204	1	4	0.115	0	9.7347	-18.7347	
205	1	4	0.115	0	7.2429	2.7348	
206	1	9	-0.585	0	9.8962	3.0145	
207	1	7	0.435	-0.7	-12.0036	-6.7747	
208	1	7	0.435	-0.7	-12.0036	-1.8737	
209	1	7	0.435	-0.7	12.0036	-4.3242	
210	1	7	0.435	0.7	12.0036	-1.8737	
211	1	7	0.435	-0.7	-6.7314	-19.6207	
212	1	7	0.435	-0.7	-6.0018	-19.6207	
213	1	7	0.435	-0.7	-6.0018	3.6207	
214	1	7	0.435	-0.7	-1.7574	3.6207	
215	1	7	0.435	0.7	2.487	-19.6207	
216	1	7	0.435	0.7	6.0018	-19.6207	
217	1	7	0.435	0.7	10.2462	3.6207	
218	1	6	-0.683	1.4	-4.9518	-15.3515	
219	1	7	0.418	2.4	-4.9518	-15.3515	
220	1	6	-0.683	-1.4	-5.6592	-16.5767	
221	1	7	0.418	-2.4	-5.6592	-16.5767	
222	1	6	-0.683	1.4	-5.6592	-14.1262	
223	1	7	0.418	2.4	-5.6592	-14.1262	
224	1	6	-0.683	-1.4	-1.4148	-14.1262	
225	1	7	0.418	-2.4	-1.4148	-14.1262	
226	1	6	-0.683	-1.4	-4.9518	-12.901	
227	1	7	0.418	-2.4	-4.9518	-12.901	
228	1	6	-0.683	1.4	-2.8296	-11.6757	
229	1	7	0.418	2.4	-2.8296	-11.6757	
230	1	6	-0.683	1.4	0.7074	-15.3515	
231	1	7	0.418	2.4	0.7074	-15.3515	
232	1	6	-0.683	-1.4	-0.7074	-12.901	
233	1	7	0.418	-2.4	-0.7074	-12.901	
234	1	6	-0.683	1.4	0.7074	-10.4505	
235	1	7	0.418	2.4	0.7074	-10.4505	
236	1	6	-0.683	-1.4	1.4148	-14.1262	
237	1	7	0.418	-2.4	1.4148	-14.1262	
238	1	6	-0.683	1.4	-0.7074	-10.4505	
239	1	7	0.418	2.4	-0.7074	-10.4505	
240	1	6	-0.683	-1.4	-3.537	-10.4505	
241	1	7	0.418	-2.4	-3.537	-10.4505	
242	1	6	-0.683	1.4	-4.9518	-10.4505	
243	1	7	0.418	2.4	-4.9518	-10.4505	
244	1	6	-0.683	-1.4	-4.9518	-8	
245	1	7	0.418	-2.4	-4.9518	-8	
246	1	6	-0.683	-1.4	-3.537	-12.901	
247	1	7	0.418	-2.4	-3.537	-12.901	
248	1	6	-0.683	-1.4	2.8296	-11.6757	
249	1	7	0.418	-2.4	2.8296	-11.6757	
250	1	6	-0.683	1.4	-7.7814	-8	
251	1	7	0.418	2.4	-7.7814	-8	
252	1	6	-0.683	1.4	3.537	-12.901	
253	1	7	0.418	2.4	3.537	-12.901	
254	1	6	-0.683	1.4	4.9518	-10.4505	
255	1	7	0.418	2.4	4.9518	-10.4505	
256	1	6	-0.683	-1.4	-7.074	-6.7747	
257	1	7	0.418	-2.4	-7.074	-6.7747	
258	1	6	-0.683	1.4	5.6592	-11.6757	
259	1	7	0.418	2.4	5.6592	-11.6757	
260	1	6	-0.683	1.4	-5.6592	-6.7747	
261	1	7	0.418	2.4	-5.6592	-6.7747	
262	1	6	-0.683	-1.4	-2.8296	-9.2252	
263	1	7	0.418	-2.4	-2.8296	-9.2252	
264	2	1	-0.8476	-26.3338	-26.3899	-45.9983	
265	2	2	0.4238	-25.3338	-26.3899	-45.9983	
266	2	2	0.4238	-26.6671	-25.4471	-45.9983	
267	3	1	-0.8476	-22.9548	-26.3854	-46.0057	
268	3	2	0.4238	-21.9548	-26.3854	-46.0057	
269	3	2	0.4238	-23.2882	-25.4426	-46.0057	
270	4	1	-0.8476	-19.5965	-26.3663	-45.9753	
271	4	2	0.4238	-18.5965	-26.3663	-45.9753	
272	4	2	0.4238	-19.9298	-25.4235	-45.9753	
273	5	1	-0.8476	-16.1299	-26.379	-45.9933	
274	5	2	0.4238	-15.1299	-26.379	-45.9933	
275	5	2	0.4238	-16.4633	-25.4362	-45.9933	
276	6	1	-0.8476	-12.7353	-26.3966	-45.954	
277	6	2	0.4238	-11.7353	-26.3966	-45.954	
278	6	2	0.4238	-13.0687	-25.4538	-45.954	
279	7	1	-0.8476	-9.3668	-26.3833	-46.0175	
280	7	2	0.4238	-8.3668	-26.3833	-46.0175	
281	7	2	0.4238	-9.7001	-25.4405	-46.0175	
282	8	1	-0.8476	-5.9806	-26.3751	-46.0421	
283	8	2	0.4238	-4.9806	-26.3751	-46.0421	
284	8	2	0.4238	-6.3139	-25.4323	-46.0421	
285	9	1	-0.8476	-2.5626	-26.337	-45.9962	
286	9	2	0.4238	-1.5626	-26.337	-45.9962	
287	9	2	0.4238	-2.896	-25.3942	-45.9962	
288	10	1	-0.8476	0.83967	-26.3767	-45.981	
289	10	2	0.4238	1.8397	-26.3767	-45.981	
290	10	2	0.4238	0.50636	-25.4339	-45.981	
291	11	1	-0.8476	4.2165	-26.3938	-46.0321	
292	11	2	0.4238	5.2165	-26.3938	-46.0321	
293	11	2	0.4238	3.8832	-25.451	-46.0321	
294	12	1	-0.8476	7.6214	-26.3335	-46.0173	
295	12	2	0.4238	8.6214	-26.3335	-46.0173	
296	12	2	0.4238	7.2881	-25.3907	-46.0173	
297	13	1	-0.8476	11.0648	-26.3316	-46.0445	
298	13	2	0.4238	12.0648	-26.3316	-46.0445	
299	13	2	0.4238	10.7315	-25.3888	-46.0445	
300	14	1	-0.8476	14.4284	-26.3228	-46.0285	
301	14	2	0.4238	15.4284	-26.3228	-46.0285	
302	14	2	0.4238	14.0951	-25.38	-46.0285	
303	15	1	-0.8476	17.8288	-26.308	-45.9688	
304	15	2	0.4238	18.8288	-26.308	-45.9688	
305	15	2	0.4238	17.4955	-25.3652	-45.9688	
306	16	1	-0.8476	21.2359	-26.3143	-46.0408	
307	16	2	0.4238	22.2359	-26.3143	-46.0408	
308	16	2	0.4238	20.9026	-25.3715	-46.0408	
309	17	1	-0.8476	24.6384	-26.3846	-45.9751	
310	17	2	0.4238	25.6384	-26.3846	-45.9751	
311	17	2	0.4238	24.3051	-25.4418	-45.9751	
312	18	1	-0.8476	-26.3635	-22.9211	-46.0196	
313	18	2	0.4238	-25.3635	-22.9211	-46.0196	
314	18	2	0.4238	-26.6968	-21.9783	-46.0196	
315	19	1	-0.8476	-22.9894	-22.9591	-45.953	
316	19	2	0.4238	-21.9894	-22.9591	-45.953	
317	19	2	0.4238	-23.3227	-22.0163	-45.953	
318	20	1	-0.8476	-19.5117	-22.9923	-45.9629	
319	20	2	0.4238	-18.5117	-22.9923	-45.9629	
320	20	2	0.4238	-19.845	-22.0495	-45.9629	
321	21	1	-0.8476	-16.1209	-22.9214	-46.0379	
322	21	2	0.4238	-15.1209	-22.9214	-46.0379	
323	21	2	0.4238	-16.4542	-21.9786	-46.0379	
324	22	1	-0.8476	-12.7308	-22.998	-46.0324	
325	22	2	0.4238	-11.7308	-22.998	-46.0324	
326	22	2	0.4238	-13.0641	-22.0552	-46.0324	
327	23	1	-0.8476	-9.3425	-22.9507	-45.9519	
328	23	2	0.4238	-8.3425	-22.9507	-45.9519	
329	23	2	0.4238	-9.6758	-22.0079	-45.9519	
330	24	1	-0.8476	-5.9775	-22.9209	-45.9911	
331	24	2	0.4238	-4.9775	-22.9209	-45.9911	
332	24	2	0.4238	-6.3108	-21.9781	-45.9911	
333	25	1	-0.8476	-2.595	-22.9662	-45.9767	
334	25	2	0.4238	-1.595	-22.9662	-45.9767	
335	25	2	0.4238	-2.9283	-22.0234	-45.9767	
336	26	1	-0.8476	0.85858	-22.9207	-46.0185	
337	26	2	0.4238	1.8586	-22.9207	-46.0185	
338	26	2	0.4238	0.52527	-21.9779	-46.0185	
339	27	1	-0.8476	4.2086	-22.9865	-45.9927	
340	27	2	0.4238	5.2086	-22.9865	-45.9927	
341	27	2	0.4238	3.8753	-22.0437	-45.9927	
342	28	1	-0.8476	7.6855	-22.9168	-46.0253	
343	28	2	0.4238	8.6855	-22.9168	-46.0253	
344	28	2	0.4238	7.3522	-21.974	-46.0253	
345	29	1	-0.8476	11.0987	-22.918	-45.9663	
346	29	2	0.4238	12.0987	-22.918	-45.9663	
347	29	2	0.4238	10.7654	-21.9752	-45.9663	
348	30	1	-0.8476	14.4984	-22.9985	-45.9904	
349	30	2	0.4238	15.4984	-22.9985	-45.9904	
350	30	2	0.4238	14.1651	-22.0557	-45.9904	
351	31	1	-0.8476	17.8982	-22.9033	-46.0401	
352	31	2	0.4238	18.8982	-22.9033	-46.0401	
353	31	2	0.4238	17.5648	-21.9605	-46.0401	
354	32	1	-0.8476	21.2193	-22.9569	-45.9903	
355	32	2	0.4238	22.2193	-22.9569	-45.9903	
356	32	2	0.4238	20.886	-22.0141	-45.9903	
357	33	1	-0.8476	24.6169	-22.9546	-45.9561	
358	33	2	0.4238	25.6169	-22.9546	-45.9561	
359	33	2	0.4238	24.2836	-22.0118	-45.9561	
360	34	1	-0.8476	-26.3004	-19.501	-45.9927	
361	34	2	0.4238	-25.3004	-19.501	-45.9927	
362	34	2	0.4238	-26.6337	-18.5582	-45.9927	
363	35	1	-0.8476	-22.9464	-19.5004	-45.9979	
364	35	2	0.4238	-21.9464	-19.5004	-45.9979	
365	35	2	0.4238	-23.2797	-18.5576	-45.9979	
366	36	1	-0.8476	-19.5263	-19.5142	-46.0277	
367	36	2	0.4238	-18.5263	-19.5142	-46.0277	
368	36	2	0.4238	-19.8596	-18.5714	-46.0277	
369	37	1	-0.8476	-16.1642	-19.5478	-45.9584	
370	37	2	0.4238	-15.1642	-19.5478	-45.9584	
371	37	2	0.4238	-16.4975	-18.605	-45.9584	
372	38	1	-0.8476	-12.7972	-19.5752	-46.0054	
373	38	2	0.4238	-11.7972	-19.5752	-46.0054	
374	38	2	0.4238	-13.1305	-18.6324	-46.0054	
375	39	1	-0.8476	-9.3795	-19.5665	-45.9866	
376	39	2	0.4238	-8.3795	-19.5665	-45.9866	
377	39	2	0.4238	-9.7128	-18.6237	-45.9866	
378	40	1	-0.8476	-5.9053	-19.5031	-45.9757	
379	40	2	0.4238	-4.9053	-19.5031	-45.9757	
380	40	2	0.4238	-6.2386	-18.5603	-45.9757	
381	41	1	-0.8476	-2.5424	-19.5782	-45.985	
382	41	2	0.4238	-1.5424	-19.5782	-45.985	
383	41	2	0.4238	-2.8757	-18.6354	-45.985	
384	42	1	-0.8476	0.8114	-19.5805	-45.9674	
385	42	2	0.4238	1.8114	-19.5805	-45.9674	
386	42	2	0.4238	0.47809	-18.6377	-45.9674	
387	43	1	-0.8476	4.2761	-19.5956	-46.0327	
388	43	2	0.4238	5.2761	-19.5956	-46.0327	
389	43	2	0.4238	3.9428	-18.6528	-46.0327	
390	44	1	-0.8476	7.6752	-19.5831	-45.9537	
391	44	2	0.4238	8.6752	-19.5831	-45.9537	
392	44	2	0.4238	7.3419	-18.6403	-45.9537	
393	45	1	-0.8476	11.063	-19.5059	-45.9584	
394	45	2	0.4238	12.063	-19.5059	-45.9584	
395	45	2	0.4238	10.7297	-18.5631	-45.9584	
396	46	1	-0.8476	14.4348	-19.5325	-46.023	
397	46	2	0.4238	15.4348	-19.5325	-46.023	
398	46	2	0.4238	14.1015	-18.5897	-46.023	
399	47	1	-0.8476	17.8451	-19.5468	-46.0012	
400	47	2	0.4238	18.8451	-19.5468	-46.0012	
401	47	2	0.4238	17.5118	-18.604	-46.0012	
402	48	1	-0.8476	21.2282	-19.5685	-45.9897	
403	48	2	0.4238	22.2282	-19.5685	-45.9897	
404	48	2	0.4238	20.8949	-18.6257	-45.9897	
405	49	1	-0.8476	24.6813	-19.5593	-45.9816	
406	49	2	0.4238	25.6813	-19.5593	-45.9816	
407	49	2	0.4238	24.348	-18.6165	-45.9816	
408	50	1	-0.8476	-26.3779	-16.1105	-46.0299	
409	50	2	0.4238	-25.3779	-16.1105	-46.0299	
410	50	2	0.4238	-26.7112	-15.1677	-46.0299	
411	51	1	-0.8476	-22.9699	-16.1941	-46.0145	
412	51	2	0.4238	-21.9699	-16.1941	-46.0145	
413	51	2	0.4238	-23.3032	-15.2513	-46.0145	
414	52	1	-0.8476	-19.535	-16.1218	-46.0063	
415	52	2	0.4238	-18.535	-16.1218	-46.0063	
416	52	2	0.4238	-19.8683	-15.179	-46.0063	
417	53	1	-0.8476	-16.1135	-16.1403	-46.0275	
418	53	2	0.4238	-15.1135	-16.1403	-46.0275	
419	53	2	0.4238	-16.4468	-15.1975	-46.0275	
420	54	1	-0.8476	-12.7072	-16.1057	-45.9643	
421	54	2	0.4238	-11.7072	-16.1057	-45.9643	
422	54	2	0.4238	-13.0405	-15.1629	-45.9643	
423	55	1	-0.8476	-9.3831	-16.1595	-45.9687	
424	55	2	0.4238	-8.3831	-16.1595	-45.9687	
425	55	2	0.4238	-9.7164	-15.2167	-45.9687	
426	56	1	-0.8476	-5.9434	-16.1633	-45.9655	
427	56	2	0.4238	-4.9434	-16.1633	-45.9655	
428	56	2	0.4238	-6.2767	-15.2205	-45.9655	
429	57	1	-0.8476	-2.5162	-16.1765	-46.0071	
430	57	2	0.4238	-1.5162	-16.1765	-46.0071	
431	57	2	0.4238	-2.8495	-15.2337	-46.0071	
432	58	1	-0.8476	0.83694	-16.1044	-46.0341	
433	58	2	0.4238	1.8369	-16.1044	-46.0341	
434	58	2	0.4238	0.50363	-15.1616	-46.0341	
435	59	1	-0.8476	4.2783	-16.1517	-46.0121	
436	59	2	0.4238	5.2783	-16.1517	-46.0121	
437	59	2	0.4238	3.945	-15.2089	-46.0121	
438	60	1	-0.8476	7.6384	-16.1222	-45.9788	
439	60	2	0.4238	8.6384	-16.1222	-45.9788	
440	60	2	0.4238	7.3051	-15.1794	-45.9788	
441	61	1	-0.8476	11.0694	-16.1809	-46.045	
442	61	2	0.4238	12.0694	-16.1809	-46.045	
443	61	2	0.4238	10.7361	-15.2381	-46.045	
444	62	1	-0.8476	14.4994	-16.2	-45.998	
445	62	2	0.4238	15.4994	-16.2	-45.998	
446	62	2	0.4238	14.1661	-15.2572	-45.998	
447	63	1	-0.8476	17.8152	-16.1148	-46.0366	
448	63	2	0.4238	18.8152	-16.1148	-46.0366	
449	63	2	0.4238	17.4819	-15.172	-46.0366	
450	64	1	-0.8476	21.2238	-16.1182	-45.9654	
451	64	2	0.4238	22.2238	-16.1182	-45.9654	
452	64	2	0.4238	20.8905	-15.1754	-45.9654	
453	65	1	-0.8476	24.6022	-16.1726	-46.0198	
454	65	2	0.4238	25.6022	-16.1726	-46.0198	
455	65	2	0.4238	24.2689	-15.2298	-46.0198	
456	66	1	-0.8476	-26.3103	-12.7679	-46.0369	
457	66	2	0.4238	-25.3103	-12.7679	-46.0369	
458	66	2	0.4238	-26.6436	-11.8251	-46.0369	
459	67	1	-0.8476	-22.9456	-12.7436	-46.024	
460	67	2	0.4238	-21.9456	-12.7436	-46.024	
461	67	2	0.4238	-23.2789	-11.8008	-46.024	
462	68	1	-0.8476	-19.5372	-12.7232	-46.0125	
463	68	2	0.4238	-18.5372	-12.7232	-46.0125	
464	68	2	0.4238	-19.8706	-11.7804	-46.0125	
465	69	1	-0.8476	-16.1296	-12.7651	-46.0244	
466	69	2	0.4238	-15.1296	-12.7651	-46.0244	
467	69	2	0.4238	-16.4629	-11.8223	-46.0244	
468	70	1	-0.8476	-12.7423	-12.7793	-45.9843	
469	70	2	0.4238	-11.7423	-12.7793	-45.9843	
470	70	2	0.4238	-13.0757	-11.8365	-45.9843	
471	71	1	-0.8476	-9.3439	-12.7921	-45.9832	
472	71	2	0.4238	-8.3439	-12.7921	-45.9832	
473	71	2	0.4238	-9.6772	-11.8493	-45.9832	
474	72	1	-0.8476	-5.9183	-12.7937	-46.0437	
475	72	2	0.4238	-4.9183	-12.7937	-46.0437	
476	72	2	0.4238	-6.2516	-11.8509	-46.0437	
477	73	1	-0.8476	-2.582	-12.7237	-45.9946	
478	73	2	0.4238	-1.582	-12.7237	-45.9946	
479	73	2	0.4238	-2.9153	-11.7809	-45.9946	
480	74	1	-0.8476	0.81568	-12.7679	-45.9603	
481	74	2	0.4238	1.8157	-12.7679	-45.9603	
482	74	2	0.4238	0.48237	-11.8251	-45.9603	
483	75	1	-0.8476	4.2881	-12.7757	-46.0434	
484	75	2	0.4238	5.2881	-12.7757	-46.0434	
485	75	2	0.4238	3.9548	-11.8329	-46.0434	
486	76	1	-0.8476	7.6086	-12.778	-46.044	
487	76	2	0.4238	8.6086	-12.778	-46.044	
488	76	2	0.4238	7.2753	-11.8352	-46.044	
489	77	1	-0.8476	11.0796	-12.7536	-46.0142	
490	77	2	0.4238	12.0796	-12.7536	-46.0142	
491	77	2	0.4238	10.7463	-11.8108	-46.0142	
492	78	1	-0.8476	14.4355	-12.7095	-45.9961	
493	78	2	0.4238	15.4355	-12.7095	-45.9961	
494	78	2	0.4238	14.1022	-11.7667	-45.9961	
495	79	1	-0.8476	17.8722	-12.719	-46.0415	
496	79	2	0.4238	18.8722	-12.719	-46.0415	
497	79	2	0.4238	17.5389	-11.7762	-46.0415	
498	80	1	-0.8476	21.2521	-12.7706	-45.9626	
499	80	2	0.4238	22.2521	-12.7706	-45.9626	
500	80	2	0.4238	20.9187	-11.8278	-45.9626	
501	81	1	-0.8476	24.6151	-12.7156	-45.985	
502	81	2	0.4238	25.6151	-12.7156	-45.985	
503	81	2	0.4238	24.2818	-11.7728	-45.985	
504	82	1	-0.8476	-26.31	-9.3662	-46.0352	
505	82	2	0.4238	-25.31	-9.3662	-46.0352	
506	82	2	0.4238	-26.6433	-8.4234	-46.0352	
507	83	1	-0.8476	-22.9357	-9.3933	-45.9534	
508	83	2	0.4238	-21.9357	-9.3933	-45.9534	
509	83	2	0.4238	-23.269	-8.4505	-45.9534	
510	84	1	-0.8476	-19.5565	-9.3722	-46.0425	
511	84	2	0.4238	-18.5565	-9.3722	-46.0425	
512	84	2	0.4238	-19.8898	-8.4294	-46.0425	
513	85	1	-0.8476	-16.1167	-9.3226	-45.9627	
514	85	2	0.4238	-15.1167	-9.3226	-45.9627	
515	85	2	0.4238	-16.45	-8.3798	-45.9627	
516	86	1	-0.8476	-12.7986	-9.3193	-45.961	
517	86	2	0.4238	-11.7986	-9.3193	-45.961	
518	86	2	0.4238	-13.1319	-8.3765	-45.961	
519	87	1	-0.8476	-9.3348	-9.3826	-46.0407	
520	87	2	0.4238	-8.3348	-9.3826	-46.0407	
521	87	2	0.4238	-9.6681	-8.4398	-46.0407	
522	88	1	-0.8476	-5.9134	-9.391	-46.0484	
523	88	2	0.4238	-4.9134	-9.391	-46.0484	
524	88	2	0.4238	-6.2467	-8.4482	-46.0484	
525	89	1	-0.8476	-2.5122	-9.3147	-46.0378	
526	89	2	0.4238	-1.5122	-9.3147	-46.0378	
527	89	2	0.4238	-2.8456	-8.3719	-46.0378	
528	90	1	-0.8476	0.83388	-9.3402	-45.9965	
529	90	2	0.4238	1.8339	-9.3402	-45.9965	
530	90	2	0.4238	0.50057	-8.3974	-45.9965	
531	91	1	-0.8476	4.254	-9.3433	-45.9725	
532	91	2	0.4238	5.254	-9.3433	-45.9725	
533	91	2	0.4238	3.9206	-8.4005	-45.9725	
534	92	1	-0.8476	7.6292	-9.3518	-46.043	
535	92	2	0.4238	8.6292	-9.3518	-46.043	
536	92	2	0.4238	7.2959	-8.409	-46.043	
537	93	1	-0.8476	11.0866	-9.3706	-46.0422	
538	93	2	0.4238	12.0866	-9.3706	-46.0422	
539	93	2	0.4238	10.7533	-8.4278	-46.0422	
540	94	1	-0.8476	14.4046	-9.3572	-46.0329	
541	94	2	0.4238	15.4046	-9.3572	-46.0329	
542	94	2	0.4238	14.0713	-8.4144	-46.0329	
543	95	1	-0.8476	17.857	-9.3426	-46.0118	
544	95	2	0.4238	18.857	-9.3426	-46.0118	
545	95	2	0.4238	17.5237	-8.3998	-46.0118	
546	96	1	-0.8476	21.2795	-9.3722	-46.0278	
547	96	2	0.4238	22.2795	-9.3722	-46.0278	
548	96	2	0.4238	20.9462	-8.4294	-46.0278	
549	97	1	-0.8476	24.645	-9.3934	-45.979	
550	97	2	0.4238	25.645	-9.3934	-45.979	
551	97	2	0.4238	24.3117	-8.4506	-45.979	
552	98	1	-0.8476	-26.3806	-5.9456	-46.0116	
553	98	2	0.4238	-25.3806	-5.9456	-46.0116	
554	98	2	0.4238	-26.7139	-5.0028	-46.0116	
555	99	1	-0.8476	-22.9918	-5.9393	-46.0054	
556	99	2	0.4238	-21.9918	-5.9393	-46.0054	
557	99	2	0.4238	-23.3251	-4.9965	-46.0054	
558	100	1	-0.8476	-19.53	-5.948	-45.9618	
559	100	2	0.4238	-18.53	-5.948	-45.9618	
560	100	2	0.4238	-19.8633	-5.0052	-45.9618	
561	101	1	-0.8476	-16.1242	-5.9044	-46.0449	
562	101	2	0.4238	-15.1242	-5.9044	-46.0449	
563	101	2	0.4238	-16.4575	-4.9616	-46.0449	
564	102	1	-0.8476	-12.704	-5.9645	-45.9983	
565	102	2	0.4238	-11.704	-5.9645	-45.9983	
566	102	2	0.4238	-13.0373	-5.0217	-45.9983	
567	103	1	-0.8476	-9.3597	-5.9725	-46.0297	
568	103	2	0.4238	-8.3597	-5.9725	-46.0297	
569	103	2	0.4238	-9.693	-5.0297	-46.0297	
570	104	1	-0.8476	-5.9334	-5.9339	-46.0065	
571	104	2	0.4238	-4.9334	-5.9339	-46.0065	
572	104	2	0.4238	-6.2667	-4.9911	-46.0065	
573	105	1	-0.8476	-2.5875	-5.9285	-45.9619	
574	105	2	0.4238	-1.5875	-5.9285	-45.9619	
575	105	2	0.4238	-2.9208	-4.9857	-45.9619	
576	106	1	-0.8476	0.80317	-5.9699	-45.951	
577	106	2	0.4238	1.8032	-5.9699	-45.951	
578	106	2	0.4238	0.46986	-5.0271	-45.951	
579	107	1	-0.8476	4.2731	-5.9361	-46.0486	
580	107	2	0.4238	5.2731	-5.9361	-46.0486	
581	107	2	0.4238	3.9398	-4.9933	-46.0486	
582	108	1	-0.8476	7.673	-5.9315	-46.0359	
583	108	2	0.4238	8.673	-5.9315	-46.0359	
584	108	2	0.4238	7.3397	-4.9887	-46.0359	
585	109	1	-0.8476	11.0852	-5.9443	-46.025	
586	109	2	0.4238	12.0852	-5.9443	-46.025	
587	109	2	0.4238	10.7518	-5.0015	-46.025	
588	110	1	-0.8476	14.45	-5.9353	-46.0117	
589	110	2	0.4238	15.45	-5.9353	-46.0117	
590	110	2	0.4238	14.1167	-4.9925	-46.0117	
591	111	1	-0.8476	17.8871	-5.9673	-46.0374	
592	111	2	0.4238	18.8871	-5.9673	-46.0374	
593	111	2	0.4238	17.5538	-5.0245	-46.0374	
594	112	1	-0.8476	21.2788	-5.9366	-46.0038	
595	112	2	0.4238	22.2788	-5.9366	-46.0038	
596	112	2	0.4238	20.9455	-4.9938	-46.0038	
597	113	1	-0.8476	24.6259	-5.9697	-46.0308	
598	113	2	0.4238	25.6259	-5.9697	-46.0308	
599	113	2	0.4238	24.2926	-5.0269	-46.0308	
600	114	1	-0.8476	-26.3229	-2.5721	-46.0039	
601	114	2	0.4238	-25.3229	-2.5721	-46.0039	
602	114	2	0.4238	-26.6562	-1.6293	-46.0039	
603	115	1	-0.8476	-22.9044	-2.509	-46.0182	
604	115	2	0.4238	-21.9044	-2.509	-46.0182	
605	115	2	0.4238	-23.2378	-1.5662	-46.0182	
606	116	1	-0.8476	-19.5416	-2.5853	-45.9589	
607	116	2	0.4238	-18.5416	-2.5853	-45.9589	
608	116	2	0.4238	-19.8749	-1.6425	-45.9589	
609	117	1	-0.8476	-16.1742	-2.5212	-45.9683	
610	117	2	0.4238	-15.1742	-2.5212	-45.9683	
611	117	2	0.4238	-16.5075	-1.5784	-45.9683	
612	118	1	-0.8476	-12.7145	-2.5956	-45.9803	
613	118	2	0.4238	-11.7145	-2.5956	-45.9803	
614	118	2	0.4238	-13.0478	-1.6528	-45.9803	
615	119	1	-0.8476	-9.3242	-2.557	-45.9794	
616	119	2	0.4238	-8.3242	-2.557	-45.9794	
617	119	2	0.4238	-9.6575	-1.6142	-45.9794	
618	120	1	-0.8476	-5.99	-2.5376	-46.0188	
619	120	2	0.4238	-4.99	-2.5376	-46.0188	
620	120	2	0.4238	-6.3233	-1.5948	-46.0188	
621	121	1	-0.8476	-2.5284	-2.5058	-45.9541	
622	121	2	0.4238	-1.5284	-2.5058	-45.9541	
623	121	2	0.4238	-2.8617	-1.563	-45.9541	
624	122	1	-0.8476	0.86893	-2.5619	-45.9846	
625	122	2	0.4238	1.8689	-2.5619	-45.9846	
626	122	2	0.4238	0.53562	-1.6191	-45.9846	
627	123	1	-0.8476	4.2702	-2.5382	-46.0272	
628	123	2	0.4238	5.2702	-2.5382	-46.0272	
629	123	2	0.4238	3.9369	-1.5954	-46.0272	
630	124	1	-0.8476	7.6939	-2.5245	-45.9543	
631	124	2	0.4238	8.6939	-2.5245	-45.9543	
632	124	2	0.4238	7.3606	-1.5817	-45.9543	
633	125	1	-0.8476	11.0464	-2.5011	-46.0474	
634	125	2	0.4238	12.0464	-2.5011	-46.0474	
635	125	2	0.4238	10.7131	-1.5583	-46.0474	
636	126	1	-0.8476	14.4026	-2.5662	-46.0263	
637	126	2	0.4238	15.4026	-2.5662	-46.0263	
638	126	2	0.4238	14.0693	-1.6234	-46.0263	
639	127	1	-0.8476	17.8566	-2.5047	-45.9684	
640	127	2	0.4238	18.8566	-2.5047	-45.9684	
641	127	2	0.4238	17.5233	-1.5619	-45.9684	
642	128	1	-0.8476	21.2395	-2.5238	-46.0201	
643	128	2	0.4238	22.2395	-2.5238	-46.0201	
644	128	2	0.4238	20.9062	-1.581	-46.0201	
645	129	1	-0.8476	24.6027	-2.5335	-46.0111	
646	129	2	0.4238	25.6027	-2.5335	-46.0111	
647	129	2	0.4238	24.2694	-1.5907	-46.0111	
648	130	1	-0.8476	-26.3098	0.89959	-46.0095	
649	130	2	0.4238	-25.3098	0.89959	-46.0095	
650	130	2	0.4238	-26.6432	1.8424	-46.0095	
651	131	1	-0.8476	-22.9332	0.8973	-45.9591	
652	131	2	0.4238	-21.9332	0.8973	-45.9591	
653	131	2	0.4238	-23.2665	1.8401	-45.9591	
654	132	1	-0.8476	-19.5408	0.8866	-46.0114	
655	132	2	0.4238	-18.5408	0.8866	-46.0114	
656	132	2	0.4238	-19.8741	1.8294	-46.0114	
657	133	1	-0.8476	-16.1682	0.89712	-46.0026	
658	133	2	0.4238	-15.1682	0.89712	-46.0026	
659	133	2	0.4238	-16.5015	1.8399	-46.0026	
660	134	1	-0.8476	-12.7499	0.85742	-45.9945	
661	134	2	0.4238	-11.7499	0.85742	-45.9945	
662	134	2	0.4238	-13.0832	1.8002	-45.9945	
663	135	1	-0.8476	-9.3306	0.84791	-46.0334	
664	135	2	0.4238	-8.3306	0.84791	-46.0334	
665	135	2	0.4238	-9.6639	1.7907	-46.0334	
666	136	1	-0.8476	-5.9416	0.85986	-45.9688	
667	136	2	0.4238	-4.9416	0.85986	-45.9688	
668	136	2	0.4238	-6.2749	1.8027	-45.9688	
669	137	1	-0.8476	-2.5605	0.80693	-46.0339	
670	137	2	0.4238	-1.5605	0.80693	-46.0339	
671	137	2	0.4238	-2.8938	1.7497	-46.0339	
672	138	1	-0.8476	0.83798	0.82211	-46.0454	
673	138	2	0.4238	1.838	0.82211	-46.0454	
674	138	2	0.4238	0.50467	1.7649	-46.0454	
675	139	1	-0.8476	4.251	0.89733	-45.961	
676	139	2	0.4238	5.251	0.89733	-45.961	
677	139	2	0.4238	3.9177	1.8401	-45.961	
678	140	1	-0.8476	7.6128	0.80657	-45.9958	
679	140	2	0.4238	8.6128	0.80657	-45.9958	
680	140	2	0.4238	7.2795	1.7494	-45.9958	
681	141	1	-0.8476	11.0389	0.85172	-45.9989	
682	141	2	0.4238	12.0389	0.85172	-45.9989	
683	141	2	0.4238	10.7056	1.7945	-45.9989	
684	142	1	-0.8476	14.4655	0.84669	-46.0455	
685	142	2	0.4238	15.4655	0.84669	-46.0455	
686	142	2	0.4238	14.1322	1.7895	-46.0455	
687	143	1	-0.8476	17.863	0.86892	-46.043	
688	143	2	0.4238	18.863	0.86892	-46.043	
689	143	2	0.4238	17.5297	1.8117	-46.043	
690	144	1	-0.8476	21.2917	0.89232	-45.95	
691	144	2	0.4238	22.2917	0.89232	-45.95	
692	144	2	0.4238	20.9584	1.8351	-45.95	
693	145	1	-0.8476	24.6581	0.87052	-46.0226	
694	145	2	0.4238	25.6581	0.87052	-46.0226	
695	145	2	0.4238	24.3248	1.8133	-46.0226	
696	146	1	-0.8476	-26.3022	4.2058	-46.0133	
697	146	2	0.4238	-25.3022	4.2058	-46.0133	
698	146	2	0.4238	-26.6355	5.1486	-46.0133	
699	147	1	-0.8476	-22.9523	4.2638	-46.0277	
700	147	2	0.4238	-21.9523	4.2638	-46.0277	
701	147	2	0.4238	-23.2856	5.2066	-46.0277	
702	148	1	-0.8476	-19.5571	4.2065	-46.0333	
703	148	2	0.4238	-18.5571	4.2065	-46.0333	
704	148	2	0.4238	-19.8905	5.1493	-46.0333	
705	149	1	-0.8476	-16.1473	4.2035	-46.0009	
706	149	2	0.4238	-15.1473	4.2035	-46.0009	
707	149	2	0.4238	-16.4806	5.1463	-46.0009	
708	150	1	-0.8476	-12.7075	4.2319	-46.0134	
709	150	2	0.4238	-11.7075	4.2319	-46.0134	
710	150	2	0.4238	-13.0408	5.1747	-46.0134	
711	151	1	-0.8476	-9.3379	4.2231	-45.9936	
712	151	2	0.4238	-8.3379	4.2231	-45.9936	
713	151	2	0.4238	-9.6712	5.1659	-45.9936	
714	152	1	-0.8476	-5.9337	4.265	-45.9539	
715	152	2	0.4238	-4.9337	4.265	-45.9539	
716	152	2	0.4238	-6.267	5.2078	-45.9539	
717	153	1	-0.8476	-2.5424	4.2678	-46.0329	
718	153	2	0.4238	-1.5424	4.2678	-46.0329	
719	153	2	0.4238	-2.8757	5.2106	-46.0329	
720	154	1	-0.8476	0.89776	4.2666	-46.0118	
721	154	2	0.4238	1.8978	4.2666	-46.0118	
722	154	2	0.4238	0.56445	5.2094	-46.0118	
723	155	1	-0.8476	4.2168	4.2992	-45.9822	
724	155	2	0.4238	5.2168	4.2992	-45.9822	
725	155	2	0.4238	3.8835	5.242	-45.9822	
726	156	1	-0.8476	7.6585	4.2425	-45.9893	
727	156	2	0.4238	8.6585	4.2425	-45.9893	
728	156	2	0.4238	7.3252	5.1853	-45.9893	
729	157	1	-0.8476	11.0961	4.2022	-46.0395	
730	157	2	0.4238	12.0961	4.2022	-46.0395	
731	157	2	0.4238	10.7628	5.145	-46.0395	
732	158	1	-0.8476	14.4887	4.2544	-45.9526	
733	158	2	0.4238	15.4887	4.2544	-45.9526	
734	158	2	0.4238	14.1554	5.1972	-45.9526	
735	159	1	-0.8476	17.8622	4.2948	-46.0319	
736	159	2	0.4238	18.8622	4.2948	-46.0319	
737	159	2	0.4238	17.5289	5.2376	-46.0319	
738	160	1	-0.8476	21.2204	4.2672	-45.9531	
739	160	2	0.4238	22.2204	4.2672	-45.9531	
740	160	2	0.4238	20.8871	5.21	-45.9531	
741	161	1	-0.8476	24.6614	4.2458	-46.0458	
742	161	2	0.4238	25.6614	4.2458	-46.0458	
743	161	2	0.4238	24.328	5.1886	-46.0458	
744	162	1	-0.8476	-26.3387	7.6776	-45.9734	
745	162	2	0.4238	-25.3387	7.6776	-45.9734	
746	162	2	0.4238	-26.672	8.6204	-45.9734	
747	163	1	-0.8476	-22.9137	7.678	-46.0348	
748	163	2	0.4238	-21.9137	7.678	-46.0348	
749	163	2	0.4238	-23.247	8.6208	-46.0348	
750	164	1	-0.8476	-19.5155	7.6209	-46.02	
751	164	2	0.4238	-18.5155	7.6209	-46.02	
752	164	2	0.4238	-19.8488	8.5637	-46.02	
753	165	1	-0.8476	-16.1281	7.6241	-46.0414	
754	165	2	0.4238	-15.1281	7.6241	-46.0414	
755	165	2	0.4238	-16.4614	8.5669	-46.0414	
756	166	1	-0.8476	-12.7295	7.6243	-46.0235	
757	166	2	0.4238	-11.7295	7.6243	-46.0235	
758	166	2	0.4238	-13.0628	8.5671	-46.0235	
759	167	1	-0.8476	-9.3265	7.6973	-45.9683	
760	167	2	0.4238	-8.3265	7.6973	-45.9683	
761	167	2	0.4238	-9.6598	8.6401	-45.9683	
762	168	1	-0.8476	-5.9136	7.651	-45.9521	
763	168	2	0.4238	-4.9136	7.651	-45.9521	
764	168	2	0.4238	-6.2469	8.5938	-45.9521	
765	169	1	-0.8476	-2.5469	7.6926	-46.0099	