# System

13763 atoms
9330 bonds
5113 angles
1193 dihedrals
147 impropers

15 atom types
8 bond types
14 angle types
15 dihedral types
1 improper types
extra bond per atom 2
extra angle per atom 1
extra special per atom 2
-27.2         27.2 xlo xhi
-27.2         27.2 ylo yhi
-50  50 zlo zhi

Atoms

1	1	3	-0.115	0	-9.1962	-5.802	
2	1	3	-0.115	0	-9.9036	-4.5767	
3	1	3	0	0	-9.1962	-3.3515	
4	1	3	-0.115	0	-9.9036	-2.1262	
5	1	3	0	0	-9.1962	-0.90102	
6	1	3	-0.115	0	-9.9036	0.32428	
7	1	3	0	0	-9.1962	1.5495	
8	1	3	-0.115	0	-9.9036	2.7748	
9	1	3	0	0	-9.1962	4	
10	1	13	0.15	0	-9.9036	5.2253	
11	1	3	0	0	-9.1962	6.4505	
12	1	3	-0.115	0	-9.9036	7.6758	
13	1	3	0	0	-9.1962	8.901	
14	1	13	0.15	0	-9.9036	10.1263	
15	1	3	0	0	-9.1962	11.3515	
16	1	3	-0.115	0	-9.9036	12.5768	
17	1	3	-0.115	0	-9.1962	13.802	
18	1	13	0.15	0	-7.7814	-5.802	
19	1	3	0	0	-7.074	-4.5767	
20	1	3	0	0	-7.7814	-3.3515	
21	1	3	0	0	-7.074	-2.1262	
22	1	3	0	0	-7.7814	-0.90102	
23	1	3	0	0	-7.074	0.32428	
24	1	3	0	0	-7.7814	1.5495	
25	1	3	0	0	-7.074	2.7748	
26	1	5	0.265	0	-7.7814	4	
27	1	5	0.265	0	-7.074	5.2253	
28	1	3	0	0	-7.7814	6.4505	
29	1	3	0	0	-7.074	7.6758	
30	1	3	0	0	-7.7814	8.901	
31	1	3	0	0	-7.074	10.1263	
32	1	3	0	0	-7.7814	11.3515	
33	1	3	0	0	-7.074	12.5768	
34	1	3	-0.115	0	-7.7814	13.802	
35	1	13	0.15	0	-4.9518	-5.802	
36	1	5	0.265	0	-5.6592	-4.5767	
37	1	5	0.265	0	-4.9518	-3.3515	
38	1	5	0.265	0	-5.6592	-2.1262	
39	1	5	0.265	0	-4.9518	-0.90102	
40	1	3	0	0	-5.6592	0.32428	
41	1	5	0.265	0	-4.9518	1.5495	
42	1	3	0	0	-5.6592	2.7748	
43	1	5	0.265	0	-4.9518	4	
44	1	5	0.265	0	-5.6592	5.2253	
45	1	3	0	0	-4.9518	6.4505	
46	1	3	0	0	-5.6592	7.6758	
47	1	3	0	0	-4.9518	8.901	
48	1	3	0	0	-5.6592	10.1263	
49	1	3	0	0	-4.9518	11.3515	
50	1	3	0	0	-5.6592	12.5768	
51	1	13	0.15	0	-4.9518	13.802	
52	1	3	-0.115	0	-3.537	-5.802	
53	1	3	0	0	-2.8296	-4.5767	
54	1	3	0	0	-3.537	-3.3515	
55	1	3	0	0	-2.8296	-2.1262	
56	1	5	0.265	0	-3.537	-0.90102	
57	1	5	0.265	0	-2.8296	0.32428	
58	1	5	0.265	0	-3.537	1.5495	
59	1	5	0.265	0	-2.8296	2.7748	
60	1	3	0	0	-3.537	4	
61	1	3	0	0	-2.8296	5.2253	
62	1	3	0	0	-3.537	6.4505	
63	1	3	0	0	-2.8296	7.6758	
64	1	3	0	0	-3.537	8.901	
65	1	3	0	0	-2.8296	10.1263	
66	1	3	0	0	-3.537	11.3515	
67	1	3	0	0	-2.8296	12.5768	
68	1	3	-0.115	0	-3.537	13.802	
69	1	3	-0.115	0	-0.7074	-5.802	
70	1	3	0	0	-1.4148	-4.5767	
71	1	3	0	0	-0.7074	-3.3515	
72	1	5	0.265	0	-1.4148	-2.1262	
73	1	5	0.265	0	-0.7074	-0.90102	
74	1	3	0	0	-1.4148	0.32428	
75	1	5	0.265	0	-0.7074	1.5495	
76	1	3	0	0	-1.4148	2.7748	
77	1	3	0	0	-0.7074	4	
78	1	3	0	0	-1.4148	5.2253	
79	1	3	0	0	-0.7074	6.4505	
80	1	3	0	0	-1.4148	7.6758	
81	1	3	0	0	-0.7074	8.901	
82	1	3	0	0	-1.4148	10.1263	
83	1	3	0	0	-0.7074	11.3515	
84	1	3	0	0	-1.4148	12.5768	
85	1	13	0.15	0	-0.7074	13.802	
86	1	3	-0.115	0	0.7074	-5.802	
87	1	3	0	0	1.4148	-4.5767	
88	1	5	0.265	0	0.7074	-3.3515	
89	1	5	0.265	0	1.4148	-2.1262	
90	1	3	0	0	0.7074	-0.90102	
91	1	3	0	0	1.4148	0.32428	
92	1	5	0.265	0	0.7074	1.5495	
93	1	3	0	0	1.4148	2.7748	
94	1	3	0	0	0.7074	4	
95	1	3	0	0	1.4148	5.2253	
96	1	3	0	0	0.7074	6.4505	
97	1	3	0	0	1.4148	7.6758	
98	1	3	0	0	0.7074	8.901	
99	1	3	0	0	1.4148	10.1263	
100	1	3	0	0	0.7074	11.3515	
101	1	3	0	0	1.4148	12.5768	
102	1	3	-0.115	0	0.7074	13.802	
103	1	13	0.15	0	3.537	-5.802	
104	1	3	0	0	2.8296	-4.5767	
105	1	3	0	0	3.537	-3.3515	
106	1	3	0	0	2.8296	-2.1262	
107	1	5	0.265	0	3.537	-0.90102	
108	1	5	0.265	0	2.8296	0.32428	
109	1	3	0	0	3.537	1.5495	
110	1	3	0	0	2.8296	2.7748	
111	1	3	0	0	3.537	4	
112	1	3	0	0	2.8296	5.2253	
113	1	3	0	0	3.537	6.4505	
114	1	3	0	0	2.8296	7.6758	
115	1	3	0	0	3.537	8.901	
116	1	3	0	0	2.8296	10.1263	
117	1	3	0	0	3.537	11.3515	
118	1	3	0	0	2.8296	12.5768	
119	1	3	-0.115	0	3.537	13.802	
120	1	13	0.15	0	4.9518	-5.802	
121	1	3	0	0	5.6592	-4.5767	
122	1	3	0	0	4.9518	-3.3515	
123	1	3	0	0	5.6592	-2.1262	
124	1	3	0	0	4.9518	-0.90102	
125	1	5	0.265	0	5.6592	0.32428	
126	1	5	0.265	0	4.9518	1.5495	
127	1	3	0	0	5.6592	2.7748	
128	1	3	0	0	4.9518	4	
129	1	3	0	0	5.6592	5.2253	
130	1	3	0	0	4.9518	6.4505	
131	1	3	0	0	5.6592	7.6758	
132	1	3	0	0	4.9518	8.901	
133	1	3	0	0	5.6592	10.1263	
134	1	3	0	0	4.9518	11.3515	
135	1	3	0	0	5.6592	12.5768	
136	1	3	-0.115	0	4.9518	13.802	
137	1	3	-0.115	0	7.7814	-5.802	
138	1	3	0	0	7.074	-4.5767	
139	1	3	0	0	7.7814	-3.3515	
140	1	3	0	0	7.074	-2.1262	
141	1	3	0	0	7.7814	-0.90102	
142	1	3	0	0	7.074	0.32428	
143	1	3	0	0	7.7814	1.5495	
144	1	3	0	0	7.074	2.7748	
145	1	3	0	0	7.7814	4	
146	1	3	0	0	7.074	5.2253	
147	1	3	0	0	7.7814	6.4505	
148	1	3	0	0	7.074	7.6758	
149	1	3	0	0	7.7814	8.901	
150	1	3	0	0	7.074	10.1263	
151	1	3	0	0	7.7814	11.3515	
152	1	3	0	0	7.074	12.5768	
153	1	3	-0.115	0	7.7814	13.802	
154	1	3	-0.115	0	9.1962	-5.802	
155	1	3	-0.115	0	9.9036	-4.5767	
156	1	3	0	0	9.1962	-3.3515	
157	1	3	-0.115	0	9.9036	-2.1262	
158	1	3	0	0	9.1962	-0.90102	
159	1	3	-0.115	0	9.9036	0.32428	
160	1	3	0	0	9.1962	1.5495	
161	1	3	-0.115	0	9.9036	2.7748	
162	1	3	0	0	9.1962	4	
163	1	3	-0.115	0	9.9036	5.2253	
164	1	3	0	0	9.1962	6.4505	
165	1	13	0.15	0	9.9036	7.6758	
166	1	3	0	0	9.1962	8.901	
167	1	13	0.15	0	9.9036	10.1263	
168	1	3	0	0	9.1962	11.3515	
169	1	3	-0.115	0	9.9036	12.5768	
170	1	13	0.15	0	9.1962	13.802	
171	1	4	0.115	0	-10.9806	-4.5767	
172	1	4	0.115	0	-10.9806	-2.1262	
173	1	4	0.115	0	-10.9806	0.32428	
174	1	4	0.115	0	-10.9806	2.7748	
175	1	9	-0.585	0	-11.3036	5.2253	
176	1	4	0.115	0	-10.9806	7.6758	
177	1	9	-0.585	0	-11.3036	10.1263	
178	1	4	0.115	0	-10.9806	12.5768	
179	1	4	0.115	0	10.9806	-4.5767	
180	1	4	0.115	0	10.9806	-2.1262	
181	1	4	0.115	0	10.9806	0.32428	
182	1	4	0.115	0	10.9806	2.7748	
183	1	4	0.115	0	10.9806	5.2253	
184	1	9	-0.585	0	11.3036	7.6758	
185	1	9	-0.585	0	11.3036	10.1263	
186	1	4	0.115	0	10.9806	12.5768	
187	1	4	0.115	0	-9.7347	-6.7347	
188	1	9	-0.585	0	-7.0814	-7.0144	
189	1	4	0.115	0	-9.7347	14.7348	
190	1	4	0.115	0	-7.2429	14.7348	
191	1	9	-0.585	0	-5.6518	-7.0144	
192	1	4	0.115	0	-2.9985	-6.7347	
193	1	9	-0.585	0	-5.6518	15.0145	
194	1	4	0.115	0	-2.9985	14.7348	
195	1	4	0.115	0	-1.2459	-6.7347	
196	1	4	0.115	0	1.2459	-6.7347	
197	1	9	-0.585	0	-1.4074	15.0145	
198	1	4	0.115	0	1.2459	14.7348	
199	1	9	-0.585	0	2.837	-7.0144	
200	1	9	-0.585	0	5.6518	-7.0144	
201	1	4	0.115	0	2.9985	14.7348	
202	1	4	0.115	0	5.4903	14.7348	
203	1	4	0.115	0	7.2429	-6.7347	
204	1	4	0.115	0	9.7347	-6.7347	
205	1	4	0.115	0	7.2429	14.7348	
206	1	9	-0.585	0	9.8962	15.0145	
207	1	7	0.435	-0.7	-12.0036	5.2253	
208	1	7	0.435	-0.7	-12.0036	10.1263	
209	1	7	0.435	-0.7	12.0036	7.6758	
210	1	7	0.435	0.7	12.0036	10.1263	
211	1	7	0.435	-0.7	-6.7314	-7.6207	
212	1	7	0.435	-0.7	-6.0018	-7.6207	
213	1	7	0.435	-0.7	-6.0018	15.6207	
214	1	7	0.435	-0.7	-1.7574	15.6207	
215	1	7	0.435	0.7	2.487	-7.6207	
216	1	7	0.435	0.7	6.0018	-7.6207	
217	1	7	0.435	0.7	10.2462	15.6207	
218	1	6	-0.683	1.4	-4.9518	-3.3515	
219	1	7	0.418	2.4	-4.9518	-3.3515	
220	1	6	-0.683	-1.4	-5.6592	-4.5767	
221	1	7	0.418	-2.4	-5.6592	-4.5767	
222	1	6	-0.683	1.4	-5.6592	-2.1262	
223	1	7	0.418	2.4	-5.6592	-2.1262	
224	1	6	-0.683	-1.4	-1.4148	-2.1262	
225	1	7	0.418	-2.4	-1.4148	-2.1262	
226	1	6	-0.683	-1.4	-4.9518	-0.90102	
227	1	7	0.418	-2.4	-4.9518	-0.90102	
228	1	6	-0.683	1.4	-2.8296	0.32428	
229	1	7	0.418	2.4	-2.8296	0.32428	
230	1	6	-0.683	1.4	0.7074	-3.3515	
231	1	7	0.418	2.4	0.7074	-3.3515	
232	1	6	-0.683	-1.4	-0.7074	-0.90102	
233	1	7	0.418	-2.4	-0.7074	-0.90102	
234	1	6	-0.683	1.4	0.7074	1.5495	
235	1	7	0.418	2.4	0.7074	1.5495	
236	1	6	-0.683	-1.4	1.4148	-2.1262	
237	1	7	0.418	-2.4	1.4148	-2.1262	
238	1	6	-0.683	1.4	-0.7074	1.5495	
239	1	7	0.418	2.4	-0.7074	1.5495	
240	1	6	-0.683	-1.4	-3.537	1.5495	
241	1	7	0.418	-2.4	-3.537	1.5495	
242	1	6	-0.683	1.4	-4.9518	1.5495	
243	1	7	0.418	2.4	-4.9518	1.5495	
244	1	6	-0.683	-1.4	-4.9518	4	
245	1	7	0.418	-2.4	-4.9518	4	
246	1	6	-0.683	-1.4	-3.537	-0.90102	
247	1	7	0.418	-2.4	-3.537	-0.90102	
248	1	6	-0.683	-1.4	2.8296	0.32428	
249	1	7	0.418	-2.4	2.8296	0.32428	
250	1	6	-0.683	1.4	-7.7814	4	
251	1	7	0.418	2.4	-7.7814	4	
252	1	6	-0.683	1.4	3.537	-0.90102	
253	1	7	0.418	2.4	3.537	-0.90102	
254	1	6	-0.683	1.4	4.9518	1.5495	
255	1	7	0.418	2.4	4.9518	1.5495	
256	1	6	-0.683	-1.4	-7.074	5.2253	
257	1	7	0.418	-2.4	-7.074	5.2253	
258	1	6	-0.683	1.4	5.6592	0.32428	
259	1	7	0.418	2.4	5.6592	0.32428	
260	1	6	-0.683	1.4	-5.6592	5.2253	
261	1	7	0.418	2.4	-5.6592	5.2253	
262	1	6	-0.683	-1.4	-2.8296	2.7748	
263	1	7	0.418	-2.4	-2.8296	2.7748	
264	2	1	-0.8476	-26.3985	-26.3164	-46.0147	
265	2	2	0.4238	-25.3985	-26.3164	-46.0147	
266	2	2	0.4238	-26.7318	-25.3736	-46.0147	
267	3	1	-0.8476	-22.9018	-26.3924	-45.9788	
268	3	2	0.4238	-21.9018	-26.3924	-45.9788	
269	3	2	0.4238	-23.2351	-25.4496	-45.9788	
270	4	1	-0.8476	-19.5626	-26.373	-46.0178	
271	4	2	0.4238	-18.5626	-26.373	-46.0178	
272	4	2	0.4238	-19.8959	-25.4302	-46.0178	
273	5	1	-0.8476	-16.168	-26.3492	-46.0353	
274	5	2	0.4238	-15.168	-26.3492	-46.0353	
275	5	2	0.4238	-16.5013	-25.4064	-46.0353	
276	6	1	-0.8476	-12.7316	-26.3431	-46.0268	
277	6	2	0.4238	-11.7316	-26.3431	-46.0268	
278	6	2	0.4238	-13.0649	-25.4003	-46.0268	
279	7	1	-0.8476	-9.3188	-26.3577	-46.0135	
280	7	2	0.4238	-8.3188	-26.3577	-46.0135	
281	7	2	0.4238	-9.6521	-25.4149	-46.0135	
282	8	1	-0.8476	-5.9171	-26.362	-45.9597	
283	8	2	0.4238	-4.9171	-26.362	-45.9597	
284	8	2	0.4238	-6.2505	-25.4192	-45.9597	
285	9	1	-0.8476	-2.5855	-26.3527	-45.9553	
286	9	2	0.4238	-1.5855	-26.3527	-45.9553	
287	9	2	0.4238	-2.9188	-25.4099	-45.9553	
288	10	1	-0.8476	0.81725	-26.3337	-45.9847	
289	10	2	0.4238	1.8173	-26.3337	-45.9847	
290	10	2	0.4238	0.48394	-25.3909	-45.9847	
291	11	1	-0.8476	4.2078	-26.384	-45.9569	
292	11	2	0.4238	5.2078	-26.384	-45.9569	
293	11	2	0.4238	3.8744	-25.4412	-45.9569	
294	12	1	-0.8476	7.6433	-26.3284	-45.9644	
295	12	2	0.4238	8.6433	-26.3284	-45.9644	
296	12	2	0.4238	7.31	-25.3856	-45.9644	
297	13	1	-0.8476	11.0835	-26.3175	-45.976	
298	13	2	0.4238	12.0835	-26.3175	-45.976	
299	13	2	0.4238	10.7502	-25.3747	-45.976	
300	14	1	-0.8476	14.4332	-26.3094	-46.0321	
301	14	2	0.4238	15.4332	-26.3094	-46.0321	
302	14	2	0.4238	14.0999	-25.3666	-46.0321	
303	15	1	-0.8476	17.8724	-26.3884	-46.0448	
304	15	2	0.4238	18.8724	-26.3884	-46.0448	
305	15	2	0.4238	17.5391	-25.4456	-46.0448	
306	16	1	-0.8476	21.2763	-26.3908	-46.0472	
307	16	2	0.4238	22.2763	-26.3908	-46.0472	
308	16	2	0.4238	20.943	-25.448	-46.0472	
309	17	1	-0.8476	24.6792	-26.333	-46.0374	
310	17	2	0.4238	25.6792	-26.333	-46.0374	
311	17	2	0.4238	24.3458	-25.3902	-46.0374	
312	18	1	-0.8476	-26.3709	-22.9146	-45.9899	
313	18	2	0.4238	-25.3709	-22.9146	-45.9899	
314	18	2	0.4238	-26.7042	-21.9718	-45.9899	
315	19	1	-0.8476	-22.9607	-22.9545	-46.0478	
316	19	2	0.4238	-21.9607	-22.9545	-46.0478	
317	19	2	0.4238	-23.294	-22.0117	-46.0478	
318	20	1	-0.8476	-19.5823	-22.9389	-45.9803	
319	20	2	0.4238	-18.5823	-22.9389	-45.9803	
320	20	2	0.4238	-19.9156	-21.9961	-45.9803	
321	21	1	-0.8476	-16.1068	-22.995	-45.9537	
322	21	2	0.4238	-15.1068	-22.995	-45.9537	
323	21	2	0.4238	-16.4401	-22.0522	-45.9537	
324	22	1	-0.8476	-12.7384	-22.9847	-46.0382	
325	22	2	0.4238	-11.7384	-22.9847	-46.0382	
326	22	2	0.4238	-13.0717	-22.0419	-46.0382	
327	23	1	-0.8476	-9.3144	-22.9438	-46.0214	
328	23	2	0.4238	-8.3144	-22.9438	-46.0214	
329	23	2	0.4238	-9.6477	-22.001	-46.0214	
330	24	1	-0.8476	-5.9843	-22.9747	-46.011	
331	24	2	0.4238	-4.9843	-22.9747	-46.011	
332	24	2	0.4238	-6.3176	-22.0319	-46.011	
333	25	1	-0.8476	-2.5778	-22.9384	-46.0023	
334	25	2	0.4238	-1.5778	-22.9384	-46.0023	
335	25	2	0.4238	-2.9111	-21.9956	-46.0023	
336	26	1	-0.8476	0.87327	-22.9717	-45.9505	
337	26	2	0.4238	1.8733	-22.9717	-45.9505	
338	26	2	0.4238	0.53996	-22.0289	-45.9505	
339	27	1	-0.8476	4.2109	-22.9941	-45.9764	
340	27	2	0.4238	5.2109	-22.9941	-45.9764	
341	27	2	0.4238	3.8776	-22.0513	-45.9764	
342	28	1	-0.8476	7.6037	-22.9848	-46.0488	
343	28	2	0.4238	8.6037	-22.9848	-46.0488	
344	28	2	0.4238	7.2704	-22.042	-46.0488	
345	29	1	-0.8476	11.0578	-22.9573	-46.0063	
346	29	2	0.4238	12.0578	-22.9573	-46.0063	
347	29	2	0.4238	10.7245	-22.0145	-46.0063	
348	30	1	-0.8476	14.4275	-22.997	-45.986	
349	30	2	0.4238	15.4275	-22.997	-45.986	
350	30	2	0.4238	14.0941	-22.0542	-45.986	
351	31	1	-0.8476	17.8973	-22.9607	-46.0208	
352	31	2	0.4238	18.8973	-22.9607	-46.0208	
353	31	2	0.4238	17.564	-22.0179	-46.0208	
354	32	1	-0.8476	21.2057	-22.9383	-45.9874	
355	32	2	0.4238	22.2057	-22.9383	-45.9874	
356	32	2	0.4238	20.8724	-21.9955	-45.9874	
357	33	1	-0.8476	24.611	-22.914	-46.0316	
358	33	2	0.4238	25.611	-22.914	-46.0316	
359	33	2	0.4238	24.2777	-21.9712	-46.0316	
360	34	1	-0.8476	-26.3638	-19.5722	-46.0308	
361	34	2	0.4238	-25.3638	-19.5722	-46.0308	
362	34	2	0.4238	-26.6971	-18.6294	-46.0308	
363	35	1	-0.8476	-22.9109	-19.524	-46.0456	
364	35	2	0.4238	-21.9109	-19.524	-46.0456	
365	35	2	0.4238	-23.2442	-18.5812	-46.0456	
366	36	1	-0.8476	-19.5886	-19.5757	-46.037	
367	36	2	0.4238	-18.5886	-19.5757	-46.037	
368	36	2	0.4238	-19.922	-18.6329	-46.037	
369	37	1	-0.8476	-16.1204	-19.5924	-46.0312	
370	37	2	0.4238	-15.1204	-19.5924	-46.0312	
371	37	2	0.4238	-16.4537	-18.6496	-46.0312	
372	38	1	-0.8476	-12.7822	-19.546	-45.9663	
373	38	2	0.4238	-11.7822	-19.546	-45.9663	
374	38	2	0.4238	-13.1155	-18.6032	-45.9663	
375	39	1	-0.8476	-9.3029	-19.5353	-46.0486	
376	39	2	0.4238	-8.3029	-19.5353	-46.0486	
377	39	2	0.4238	-9.6362	-18.5925	-46.0486	
378	40	1	-0.8476	-5.9651	-19.5551	-45.9937	
379	40	2	0.4238	-4.9651	-19.5551	-45.9937	
380	40	2	0.4238	-6.2984	-18.6123	-45.9937	
381	41	1	-0.8476	-2.5247	-19.5039	-45.9874	
382	41	2	0.4238	-1.5247	-19.5039	-45.9874	
383	41	2	0.4238	-2.858	-18.5611	-45.9874	
384	42	1	-0.8476	0.8548	-19.5087	-45.9762	
385	42	2	0.4238	1.8548	-19.5087	-45.9762	
386	42	2	0.4238	0.52149	-18.5659	-45.9762	
387	43	1	-0.8476	4.2414	-19.5285	-46.0466	
388	43	2	0.4238	5.2414	-19.5285	-46.0466	
389	43	2	0.4238	3.9081	-18.5857	-46.0466	
390	44	1	-0.8476	7.6425	-19.5659	-46.037	
391	44	2	0.4238	8.6425	-19.5659	-46.037	
392	44	2	0.4238	7.3092	-18.6231	-46.037	
393	45	1	-0.8476	11.0526	-19.5245	-45.978	
394	45	2	0.4238	12.0526	-19.5245	-45.978	
395	45	2	0.4238	10.7193	-18.5817	-45.978	
396	46	1	-0.8476	14.4498	-19.5439	-46.0408	
397	46	2	0.4238	15.4498	-19.5439	-46.0408	
398	46	2	0.4238	14.1165	-18.6011	-46.0408	
399	47	1	-0.8476	17.8141	-19.5635	-45.9603	
400	47	2	0.4238	18.8141	-19.5635	-45.9603	
401	47	2	0.4238	17.4808	-18.6207	-45.9603	
402	48	1	-0.8476	21.2071	-19.5479	-45.9706	
403	48	2	0.4238	22.2071	-19.5479	-45.9706	
404	48	2	0.4238	20.8738	-18.6051	-45.9706	
405	49	1	-0.8476	24.6399	-19.5928	-46.0463	
406	49	2	0.4238	25.6399	-19.5928	-46.0463	
407	49	2	0.4238	24.3066	-18.65	-46.0463	
408	50	1	-0.8476	-26.3132	-16.1699	-46.0424	
409	50	2	0.4238	-25.3132	-16.1699	-46.0424	
410	50	2	0.4238	-26.6465	-15.2271	-46.0424	
411	51	1	-0.8476	-22.9651	-16.1279	-45.9655	
412	51	2	0.4238	-21.9651	-16.1279	-45.9655	
413	51	2	0.4238	-23.2984	-15.1851	-45.9655	
414	52	1	-0.8476	-19.5569	-16.1548	-45.9906	
415	52	2	0.4238	-18.5569	-16.1548	-45.9906	
416	52	2	0.4238	-19.8902	-15.212	-45.9906	
417	53	1	-0.8476	-16.1433	-16.154	-45.9962	
418	53	2	0.4238	-15.1433	-16.154	-45.9962	
419	53	2	0.4238	-16.4766	-15.2112	-45.9962	
420	54	1	-0.8476	-12.7283	-16.1322	-45.9555	
421	54	2	0.4238	-11.7283	-16.1322	-45.9555	
422	54	2	0.4238	-13.0616	-15.1894	-45.9555	
423	55	1	-0.8476	-9.3992	-16.1876	-46.033	
424	55	2	0.4238	-8.3992	-16.1876	-46.033	
425	55	2	0.4238	-9.7326	-15.2448	-46.033	
426	56	1	-0.8476	-5.903	-16.1248	-46.0181	
427	56	2	0.4238	-4.903	-16.1248	-46.0181	
428	56	2	0.4238	-6.2363	-15.182	-46.0181	
429	57	1	-0.8476	-2.5559	-16.176	-45.9914	
430	57	2	0.4238	-1.5559	-16.176	-45.9914	
431	57	2	0.4238	-2.8892	-15.2332	-45.9914	
432	58	1	-0.8476	0.89118	-16.1003	-46.0289	
433	58	2	0.4238	1.8912	-16.1003	-46.0289	
434	58	2	0.4238	0.55787	-15.1575	-46.0289	
435	59	1	-0.8476	4.202	-16.1173	-45.9631	
436	59	2	0.4238	5.202	-16.1173	-45.9631	
437	59	2	0.4238	3.8687	-15.1745	-45.9631	
438	60	1	-0.8476	7.6423	-16.1585	-46.0313	
439	60	2	0.4238	8.6423	-16.1585	-46.0313	
440	60	2	0.4238	7.309	-15.2157	-46.0313	
441	61	1	-0.8476	11.0211	-16.1535	-45.9748	
442	61	2	0.4238	12.0211	-16.1535	-45.9748	
443	61	2	0.4238	10.6878	-15.2107	-45.9748	
444	62	1	-0.8476	14.4992	-16.1991	-45.9585	
445	62	2	0.4238	15.4992	-16.1991	-45.9585	
446	62	2	0.4238	14.1659	-15.2563	-45.9585	
447	63	1	-0.8476	17.8512	-16.1562	-46.014	
448	63	2	0.4238	18.8512	-16.1562	-46.014	
449	63	2	0.4238	17.5179	-15.2134	-46.014	
450	64	1	-0.8476	21.2286	-16.1598	-46.0474	
451	64	2	0.4238	22.2286	-16.1598	-46.0474	
452	64	2	0.4238	20.8953	-15.217	-46.0474	
453	65	1	-0.8476	24.6004	-16.1738	-45.9815	
454	65	2	0.4238	25.6004	-16.1738	-45.9815	
455	65	2	0.4238	24.2671	-15.231	-45.9815	
456	66	1	-0.8476	-26.3735	-12.7673	-46.0416	
457	66	2	0.4238	-25.3735	-12.7673	-46.0416	
458	66	2	0.4238	-26.7068	-11.8245	-46.0416	
459	67	1	-0.8476	-22.9014	-12.7897	-46.0113	
460	67	2	0.4238	-21.9014	-12.7897	-46.0113	
461	67	2	0.4238	-23.2347	-11.8469	-46.0113	
462	68	1	-0.8476	-19.5056	-12.7308	-45.9547	
463	68	2	0.4238	-18.5056	-12.7308	-45.9547	
464	68	2	0.4238	-19.8389	-11.788	-45.9547	
465	69	1	-0.8476	-16.1614	-12.7934	-46.0028	
466	69	2	0.4238	-15.1614	-12.7934	-46.0028	
467	69	2	0.4238	-16.4948	-11.8506	-46.0028	
468	70	1	-0.8476	-12.7463	-12.7098	-46.032	
469	70	2	0.4238	-11.7463	-12.7098	-46.032	
470	70	2	0.4238	-13.0797	-11.767	-46.032	
471	71	1	-0.8476	-9.3985	-12.789	-46.0107	
472	71	2	0.4238	-8.3985	-12.789	-46.0107	
473	71	2	0.4238	-9.7318	-11.8462	-46.0107	
474	72	1	-0.8476	-5.9292	-12.7605	-46.0158	
475	72	2	0.4238	-4.9292	-12.7605	-46.0158	
476	72	2	0.4238	-6.2625	-11.8177	-46.0158	
477	73	1	-0.8476	-2.5006	-12.7261	-46.0488	
478	73	2	0.4238	-1.5006	-12.7261	-46.0488	
479	73	2	0.4238	-2.8339	-11.7833	-46.0488	
480	74	1	-0.8476	0.8262	-12.7397	-45.9797	
481	74	2	0.4238	1.8262	-12.7397	-45.9797	
482	74	2	0.4238	0.49289	-11.7969	-45.9797	
483	75	1	-0.8476	4.2363	-12.7327	-45.9838	
484	75	2	0.4238	5.2363	-12.7327	-45.9838	
485	75	2	0.4238	3.903	-11.7899	-45.9838	
486	76	1	-0.8476	7.6664	-12.789	-46.0232	
487	76	2	0.4238	8.6664	-12.789	-46.0232	
488	76	2	0.4238	7.333	-11.8462	-46.0232	
489	77	1	-0.8476	11.0259	-12.7682	-45.9543	
490	77	2	0.4238	12.0259	-12.7682	-45.9543	
491	77	2	0.4238	10.6926	-11.8254	-45.9543	
492	78	1	-0.8476	14.4053	-12.749	-46.0447	
493	78	2	0.4238	15.4053	-12.749	-46.0447	
494	78	2	0.4238	14.0719	-11.8062	-46.0447	
495	79	1	-0.8476	17.8047	-12.7724	-45.954	
496	79	2	0.4238	18.8047	-12.7724	-45.954	
497	79	2	0.4238	17.4714	-11.8296	-45.954	
498	80	1	-0.8476	21.2746	-12.7956	-46.0261	
499	80	2	0.4238	22.2746	-12.7956	-46.0261	
500	80	2	0.4238	20.9413	-11.8528	-46.0261	
501	81	1	-0.8476	24.6355	-12.7836	-46.0297	
502	81	2	0.4238	25.6355	-12.7836	-46.0297	
503	81	2	0.4238	24.3022	-11.8408	-46.0297	
504	82	1	-0.8476	-26.3657	-9.346	-45.9526	
505	82	2	0.4238	-25.3657	-9.346	-45.9526	
506	82	2	0.4238	-26.699	-8.4032	-45.9526	
507	83	1	-0.8476	-22.9949	-9.3473	-46.0058	
508	83	2	0.4238	-21.9949	-9.3473	-46.0058	
509	83	2	0.4238	-23.3283	-8.4045	-46.0058	
510	84	1	-0.8476	-19.5304	-9.3214	-45.9982	
511	84	2	0.4238	-18.5304	-9.3214	-45.9982	
512	84	2	0.4238	-19.8637	-8.3786	-45.9982	
513	85	1	-0.8476	-16.1993	-9.3007	-46.0296	
514	85	2	0.4238	-15.1993	-9.3007	-46.0296	
515	85	2	0.4238	-16.5326	-8.3579	-46.0296	
516	86	1	-0.8476	-12.7381	-9.326	-45.9616	
517	86	2	0.4238	-11.7381	-9.326	-45.9616	
518	86	2	0.4238	-13.0715	-8.3832	-45.9616	
519	87	1	-0.8476	-9.3306	-9.3871	-46.0065	
520	87	2	0.4238	-8.3306	-9.3871	-46.0065	
521	87	2	0.4238	-9.6639	-8.4443	-46.0065	
522	88	1	-0.8476	-5.9431	-9.3755	-46.0144	
523	88	2	0.4238	-4.9431	-9.3755	-46.0144	
524	88	2	0.4238	-6.2764	-8.4327	-46.0144	
525	89	1	-0.8476	-2.5687	-9.3527	-45.9891	
526	89	2	0.4238	-1.5687	-9.3527	-45.9891	
527	89	2	0.4238	-2.902	-8.4099	-45.9891	
528	90	1	-0.8476	0.84914	-9.3192	-46.0179	
529	90	2	0.4238	1.8491	-9.3192	-46.0179	
530	90	2	0.4238	0.51583	-8.3764	-46.0179	
531	91	1	-0.8476	4.2936	-9.3467	-45.9632	
532	91	2	0.4238	5.2936	-9.3467	-45.9632	
533	91	2	0.4238	3.9603	-8.4039	-45.9632	
534	92	1	-0.8476	7.6233	-9.3098	-45.992	
535	92	2	0.4238	8.6233	-9.3098	-45.992	
536	92	2	0.4238	7.29	-8.367	-45.992	
537	93	1	-0.8476	11.0229	-9.3533	-46.042	
538	93	2	0.4238	12.0229	-9.3533	-46.042	
539	93	2	0.4238	10.6896	-8.4105	-46.042	
540	94	1	-0.8476	14.4487	-9.3604	-46.0221	
541	94	2	0.4238	15.4487	-9.3604	-46.0221	
542	94	2	0.4238	14.1154	-8.4176	-46.0221	
543	95	1	-0.8476	17.8354	-9.3834	-45.9652	
544	95	2	0.4238	18.8354	-9.3834	-45.9652	
545	95	2	0.4238	17.5021	-8.4406	-45.9652	
546	96	1	-0.8476	21.2646	-9.3011	-45.9744	
547	96	2	0.4238	22.2646	-9.3011	-45.9744	
548	96	2	0.4238	20.9313	-8.3583	-45.9744	
549	97	1	-0.8476	24.6364	-9.3778	-45.9789	
550	97	2	0.4238	25.6364	-9.3778	-45.9789	
551	97	2	0.4238	24.303	-8.435	-45.9789	
552	98	1	-0.8476	-26.3562	-5.9801	-45.968	
553	98	2	0.4238	-25.3562	-5.9801	-45.968	
554	98	2	0.4238	-26.6895	-5.0373	-45.968	
555	99	1	-0.8476	-22.9339	-5.9007	-45.9723	
556	99	2	0.4238	-21.9339	-5.9007	-45.9723	
557	99	2	0.4238	-23.2672	-4.9579	-45.9723	
558	100	1	-0.8476	-19.5127	-5.9166	-46.0393	
559	100	2	0.4238	-18.5127	-5.9166	-46.0393	
560	100	2	0.4238	-19.846	-4.9738	-46.0393	
561	101	1	-0.8476	-16.1283	-5.9562	-45.9539	
562	101	2	0.4238	-15.1283	-5.9562	-45.9539	
563	101	2	0.4238	-16.4616	-5.0134	-45.9539	
564	102	1	-0.8476	-12.71	-5.9708	-46.03	
565	102	2	0.4238	-11.71	-5.9708	-46.03	
566	102	2	0.4238	-13.0433	-5.028	-46.03	
567	103	1	-0.8476	-9.3336	-5.9041	-45.9684	
568	103	2	0.4238	-8.3336	-5.9041	-45.9684	
569	103	2	0.4238	-9.6669	-4.9613	-45.9684	
570	104	1	-0.8476	-5.9019	-5.9363	-46.0103	
571	104	2	0.4238	-4.9019	-5.9363	-46.0103	
572	104	2	0.4238	-6.2352	-4.9935	-46.0103	
573	105	1	-0.8476	-2.5114	-5.965	-45.9784	
574	105	2	0.4238	-1.5114	-5.965	-45.9784	
575	105	2	0.4238	-2.8447	-5.0222	-45.9784	
576	106	1	-0.8476	0.85462	-5.9144	-46.0454	
577	106	2	0.4238	1.8546	-5.9144	-46.0454	
578	106	2	0.4238	0.52131	-4.9716	-46.0454	
579	107	1	-0.8476	4.2153	-5.998	-46.0393	
580	107	2	0.4238	5.2153	-5.998	-46.0393	
581	107	2	0.4238	3.882	-5.0552	-46.0393	
582	108	1	-0.8476	7.6948	-5.9818	-45.9685	
583	108	2	0.4238	8.6948	-5.9818	-45.9685	
584	108	2	0.4238	7.3615	-5.039	-45.9685	
585	109	1	-0.8476	11.0397	-5.9471	-45.9648	
586	109	2	0.4238	12.0397	-5.9471	-45.9648	
587	109	2	0.4238	10.7064	-5.0043	-45.9648	
588	110	1	-0.8476	14.456	-5.9609	-46.0211	
589	110	2	0.4238	15.456	-5.9609	-46.0211	
590	110	2	0.4238	14.1227	-5.0181	-46.0211	
591	111	1	-0.8476	17.8134	-5.9236	-46.0417	
592	111	2	0.4238	18.8134	-5.9236	-46.0417	
593	111	2	0.4238	17.4801	-4.9808	-46.0417	
594	112	1	-0.8476	21.2873	-5.9139	-45.9844	
595	112	2	0.4238	22.2873	-5.9139	-45.9844	
596	112	2	0.4238	20.954	-4.9711	-45.9844	
597	113	1	-0.8476	24.6918	-5.9823	-46.0304	
598	113	2	0.4238	25.6918	-5.9823	-46.0304	
599	113	2	0.4238	24.3585	-5.0395	-46.0304	
600	114	1	-0.8476	-26.3013	-2.5673	-46.0235	
601	114	2	0.4238	-25.3013	-2.5673	-46.0235	
602	114	2	0.4238	-26.6346	-1.6245	-46.0235	
603	115	1	-0.8476	-22.9338	-2.5783	-45.9815	
604	115	2	0.4238	-21.9338	-2.5783	-45.9815	
605	115	2	0.4238	-23.2671	-1.6355	-45.9815	
606	116	1	-0.8476	-19.538	-2.5778	-45.9698	
607	116	2	0.4238	-18.538	-2.5778	-45.9698	
608	116	2	0.4238	-19.8713	-1.635	-45.9698	
609	117	1	-0.8476	-16.1931	-2.5296	-46.0166	
610	117	2	0.4238	-15.1931	-2.5296	-46.0166	
611	117	2	0.4238	-16.5264	-1.5868	-46.0166	
612	118	1	-0.8476	-12.7319	-2.5723	-45.9903	
613	118	2	0.4238	-11.7319	-2.5723	-45.9903	
614	118	2	0.4238	-13.0652	-1.6295	-45.9903	
615	119	1	-0.8476	-9.3877	-2.5741	-46.0062	
616	119	2	0.4238	-8.3877	-2.5741	-46.0062	
617	119	2	0.4238	-9.721	-1.6313	-46.0062	
618	120	1	-0.8476	-5.927	-2.5794	-45.9935	
619	120	2	0.4238	-4.927	-2.5794	-45.9935	
620	120	2	0.4238	-6.2603	-1.6366	-45.9935	
621	121	1	-0.8476	-2.5062	-2.5851	-45.984	
622	121	2	0.4238	-1.5062	-2.5851	-45.984	
623	121	2	0.4238	-2.8395	-1.6423	-45.984	
624	122	1	-0.8476	0.80532	-2.5321	-45.9628	
625	122	2	0.4238	1.8053	-2.5321	-45.9628	
626	122	2	0.4238	0.47201	-1.5893	-45.9628	
627	123	1	-0.8476	4.2858	-2.5549	-46.0045	
628	123	2	0.4238	5.2858	-2.5549	-46.0045	
629	123	2	0.4238	3.9525	-1.6121	-46.0045	
630	124	1	-0.8476	7.6449	-2.516	-45.9786	
631	124	2	0.4238	8.6449	-2.516	-45.9786	
632	124	2	0.4238	7.3116	-1.5732	-45.9786	
633	125	1	-0.8476	11.0531	-2.5981	-46.0001	
634	125	2	0.4238	12.0531	-2.5981	-46.0001	
635	125	2	0.4238	10.7198	-1.6553	-46.0001	
636	126	1	-0.8476	14.4337	-2.506	-46.0389	
637	126	2	0.4238	15.4337	-2.506	-46.0389	
638	126	2	0.4238	14.1004	-1.5632	-46.0389	
639	127	1	-0.8476	17.8059	-2.5774	-46.0321	
640	127	2	0.4238	18.8059	-2.5774	-46.0321	
641	127	2	0.4238	17.4726	-1.6346	-46.0321	
642	128	1	-0.8476	21.2106	-2.5745	-45.9931	
643	128	2	0.4238	22.2106	-2.5745	-45.9931	
644	128	2	0.4238	20.8773	-1.6317	-45.9931	
645	129	1	-0.8476	24.6905	-2.5074	-46.0297	
646	129	2	0.4238	25.6905	-2.5074	-46.0297	
647	129	2	0.4238	24.3572	-1.5646	-46.0297	
648	130	1	-0.8476	-26.3417	0.85464	-45.9519	
649	130	2	0.4238	-25.3417	0.85464	-45.9519	
650	130	2	0.4238	-26.675	1.7974	-45.9519	
651	131	1	-0.8476	-22.9567	0.81013	-46.0251	
652	131	2	0.4238	-21.9567	0.81013	-46.0251	
653	131	2	0.4238	-23.29	1.7529	-46.0251	
654	132	1	-0.8476	-19.5069	0.83104	-46.0346	
655	132	2	0.4238	-18.5069	0.83104	-46.0346	
656	132	2	0.4238	-19.8402	1.7738	-46.0346	
657	133	1	-0.8476	-16.1078	0.84302	-46.0182	
658	133	2	0.4238	-15.1078	0.84302	-46.0182	
659	133	2	0.4238	-16.4411	1.7858	-46.0182	
660	134	1	-0.8476	-12.7307	0.83488	-45.9788	
661	134	2	0.4238	-11.7307	0.83488	-45.9788	
662	134	2	0.4238	-13.064	1.7777	-45.9788	
663	135	1	-0.8476	-9.3021	0.82918	-46.034	
664	135	2	0.4238	-8.3021	0.82918	-46.034	
665	135	2	0.4238	-9.6355	1.772	-46.034	
666	136	1	-0.8476	-5.9945	0.83169	-46.007	
667	136	2	0.4238	-4.9945	0.83169	-46.007	
668	136	2	0.4238	-6.3278	1.7745	-46.007	
669	137	1	-0.8476	-2.5646	0.85348	-46.0219	
670	137	2	0.4238	-1.5646	0.85348	-46.0219	
671	137	2	0.4238	-2.8979	1.7963	-46.0219	
672	138	1	-0.8476	0.86516	0.89614	-45.9968	
673	138	2	0.4238	1.8652	0.89614	-45.9968	
674	138	2	0.4238	0.53185	1.8389	-45.9968	
675	139	1	-0.8476	4.2915	0.86029	-45.9935	
676	139	2	0.4238	5.2915	0.86029	-45.9935	
677	139	2	0.4238	3.9582	1.8031	-45.9935	
678	140	1	-0.8476	7.6833	0.83522	-45.9849	
679	140	2	0.4238	8.6833	0.83522	-45.9849	
680	140	2	0.4238	7.35	1.778	-45.9849	
681	141	1	-0.8476	11.0369	0.82465	-46.0487	
682	141	2	0.4238	12.0369	0.82465	-46.0487	
683	141	2	0.4238	10.7036	1.7675	-46.0487	
684	142	1	-0.8476	14.4261	0.87315	-46.0193	
685	142	2	0.4238	15.4261	0.87315	-46.0193	
686	142	2	0.4238	14.0928	1.8159	-46.0193	
687	143	1	-0.8476	17.8528	0.8969	-45.9694	
688	143	2	0.4238	18.8528	0.8969	-45.9694	
689	143	2	0.4238	17.5195	1.8397	-45.9694	
690	144	1	-0.8476	21.2827	0.88475	-45.9705	
691	144	2	0.4238	22.2827	0.88475	-45.9705	
692	144	2	0.4238	20.9494	1.8275	-45.9705	
693	145	1	-0.8476	24.6228	0.80787	-45.9719	
694	145	2	0.4238	25.6228	0.80787	-45.9719	
695	145	2	0.4238	24.2895	1.7507	-45.9719	
696	146	1	-0.8476	-26.3826	4.277	-45.9583	
697	146	2	0.4238	-25.3826	4.277	-45.9583	
698	146	2	0.4238	-26.716	5.2198	-45.9583	
699	147	1	-0.8476	-22.9231	4.2622	-46.0267	
700	147	2	0.4238	-21.9231	4.2622	-46.0267	
701	147	2	0.4238	-23.2564	5.205	-46.0267	
702	148	1	-0.8476	-19.5906	4.2012	-45.9989	
703	148	2	0.4238	-18.5906	4.2012	-45.9989	
704	148	2	0.4238	-19.9239	5.144	-45.9989	
705	149	1	-0.8476	-16.1469	4.231	-45.9772	
706	149	2	0.4238	-15.1469	4.231	-45.9772	
707	149	2	0.4238	-16.4803	5.1738	-45.9772	
708	150	1	-0.8476	-12.7953	4.2065	-45.9794	
709	150	2	0.4238	-11.7953	4.2065	-45.9794	
710	150	2	0.4238	-13.1286	5.1493	-45.9794	
711	151	1	-0.8476	-9.3244	4.2568	-46.0363	
712	151	2	0.4238	-8.3244	4.2568	-46.0363	
713	151	2	0.4238	-9.6577	5.1996	-46.0363	
714	152	1	-0.8476	-5.9575	4.2968	-46.0329	
715	152	2	0.4238	-4.9575	4.2968	-46.0329	
716	152	2	0.4238	-6.2908	5.2396	-46.0329	
717	153	1	-0.8476	-2.5278	4.2406	-46.0279	
718	153	2	0.4238	-1.5278	4.2406	-46.0279	
719	153	2	0.4238	-2.8611	5.1834	-46.0279	
720	154	1	-0.8476	0.83086	4.2635	-46.015	
721	154	2	0.4238	1.8309	4.2635	-46.015	
722	154	2	0.4238	0.49755	5.2063	-46.015	
723	155	1	-0.8476	4.2367	4.2148	-45.9945	
724	155	2	0.4238	5.2367	4.2148	-45.9945	
725	155	2	0.4238	3.9033	5.1576	-45.9945	
726	156	1	-0.8476	7.6199	4.2604	-45.9552	
727	156	2	0.4238	8.6199	4.2604	-45.9552	
728	156	2	0.4238	7.2866	5.2032	-45.9552	
729	157	1	-0.8476	11.0605	4.2991	-45.9659	
730	157	2	0.4238	12.0605	4.2991	-45.9659	
731	157	2	0.4238	10.7272	5.2419	-45.9659	
732	158	1	-0.8476	14.4024	4.2922	-46.05	
733	158	2	0.4238	15.4024	4.2922	-46.05	
734	158	2	0.4238	14.069	5.235	-46.05	
735	159	1	-0.8476	17.83	4.2216	-45.9842	
736	159	2	0.4238	18.83	4.2216	-45.9842	
737	159	2	0.4238	17.4967	5.1644	-45.9842	
738	160	1	-0.8476	21.2631	4.2506	-46.0059	
739	160	2	0.4238	22.2631	4.2506	-46.0059	
740	160	2	0.4238	20.9298	5.1934	-46.0059	
741	161	1	-0.8476	24.688	4.243	-45.9865	
742	161	2	0.4238	25.688	4.243	-45.9865	
743	161	2	0.4238	24.3546	5.1858	-45.9865	
744	162	1	-0.8476	-26.3085	7.6388	-45.9846	
745	162	2	0.4238	-25.3085	7.6388	-45.9846	
746	162	2	0.4238	-26.6418	8.5816	-45.9846	
747	163	1	-0.8476	-22.9077	7.6923	-46.0296	
748	163	2	0.4238	-21.9077	7.6923	-46.0296	
749	163	2	0.4238	-23.241	8.6351	-46.0296	
750	164	1	-0.8476	-19.5831	7.602	-45.9777	
751	164	2	0.4238	-18.5831	7.602	-45.9777	
752	164	2	0.4238	-19.9164	8.5448	-45.9777	
753	165	1	-0.8476	-16.1311	7.6814	-46.0418	
754	165	2	0.4238	-15.1311	7.6814	-46.0418	
755	165	2	0.4238	-16.4644	8.6242	-46.0418	
756	166	1	-0.8476	-12.7444	7.6495	-45.9898	
757	166	2	0.4238	-11.7444	7.6495	-45.9898	
758	166	2	0.4238	-13.0777	8.5923	-45.9898	
759	167	1	-0.8476	-9.3653	7.6468	-45.9586	
760	167	2	0.4238	-8.3653	7.6468	-45.9586	
761	167	2	0.4238	-9.6986	8.5896	-45.9586	
762	168	1	-0.8476	-5.9735	7.6614	-45.9854	
763	168	2	0.4238	-4.9735	7.6614	-45.9854	
764	168	2	0.4238	-6.3068	8.6042	-45.9854	
765	169	1	-0.8476	-2.5048	7.6314	-45.9843	
766	169	2	0.4238	-1.5048	7.6314	-45.9843	
767	169	2	0.4238	-2.8381	8.5742	-45.9843	
768	170	1	-0.8476	0.8044	7.6573	-46.0004	
769	170	2	0.4238	1.8044	7.6573	-46.0004	