# System

13763 atoms
9330 bonds
5113 angles
1193 dihedrals
147 impropers

15 atom types
8 bond types
14 angle types
15 dihedral types
1 improper types
extra bond per atom 2
extra angle per atom 1
extra special per atom 2
-27.2         27.2 xlo xhi
-27.2         27.2 ylo yhi
-50  50 zlo zhi

Atoms

1	1	3	-0.115	0	-9.1962	-27.802	
2	1	3	-0.115	0	-9.9036	-26.5767	
3	1	3	0	0	-9.1962	-25.3515	
4	1	3	-0.115	0	-9.9036	-24.1262	
5	1	3	0	0	-9.1962	-22.901	
6	1	3	-0.115	0	-9.9036	-21.6757	
7	1	3	0	0	-9.1962	-20.4505	
8	1	3	-0.115	0	-9.9036	-19.2252	
9	1	3	0	0	-9.1962	-18	
10	1	13	0.15	0	-9.9036	-16.7747	
11	1	3	0	0	-9.1962	-15.5495	
12	1	3	-0.115	0	-9.9036	-14.3242	
13	1	3	0	0	-9.1962	-13.099	
14	1	13	0.15	0	-9.9036	-11.8737	
15	1	3	0	0	-9.1962	-10.6485	
16	1	3	-0.115	0	-9.9036	-9.4232	
17	1	3	-0.115	0	-9.1962	-8.198	
18	1	13	0.15	0	-7.7814	-27.802	
19	1	3	0	0	-7.074	-26.5767	
20	1	3	0	0	-7.7814	-25.3515	
21	1	3	0	0	-7.074	-24.1262	
22	1	3	0	0	-7.7814	-22.901	
23	1	3	0	0	-7.074	-21.6757	
24	1	3	0	0	-7.7814	-20.4505	
25	1	3	0	0	-7.074	-19.2252	
26	1	5	0.265	0	-7.7814	-18	
27	1	5	0.265	0	-7.074	-16.7747	
28	1	3	0	0	-7.7814	-15.5495	
29	1	3	0	0	-7.074	-14.3242	
30	1	3	0	0	-7.7814	-13.099	
31	1	3	0	0	-7.074	-11.8737	
32	1	3	0	0	-7.7814	-10.6485	
33	1	3	0	0	-7.074	-9.4232	
34	1	3	-0.115	0	-7.7814	-8.198	
35	1	13	0.15	0	-4.9518	-27.802	
36	1	5	0.265	0	-5.6592	-26.5767	
37	1	5	0.265	0	-4.9518	-25.3515	
38	1	5	0.265	0	-5.6592	-24.1262	
39	1	5	0.265	0	-4.9518	-22.901	
40	1	3	0	0	-5.6592	-21.6757	
41	1	5	0.265	0	-4.9518	-20.4505	
42	1	3	0	0	-5.6592	-19.2252	
43	1	5	0.265	0	-4.9518	-18	
44	1	5	0.265	0	-5.6592	-16.7747	
45	1	3	0	0	-4.9518	-15.5495	
46	1	3	0	0	-5.6592	-14.3242	
47	1	3	0	0	-4.9518	-13.099	
48	1	3	0	0	-5.6592	-11.8737	
49	1	3	0	0	-4.9518	-10.6485	
50	1	3	0	0	-5.6592	-9.4232	
51	1	13	0.15	0	-4.9518	-8.198	
52	1	3	-0.115	0	-3.537	-27.802	
53	1	3	0	0	-2.8296	-26.5767	
54	1	3	0	0	-3.537	-25.3515	
55	1	3	0	0	-2.8296	-24.1262	
56	1	5	0.265	0	-3.537	-22.901	
57	1	5	0.265	0	-2.8296	-21.6757	
58	1	5	0.265	0	-3.537	-20.4505	
59	1	5	0.265	0	-2.8296	-19.2252	
60	1	3	0	0	-3.537	-18	
61	1	3	0	0	-2.8296	-16.7747	
62	1	3	0	0	-3.537	-15.5495	
63	1	3	0	0	-2.8296	-14.3242	
64	1	3	0	0	-3.537	-13.099	
65	1	3	0	0	-2.8296	-11.8737	
66	1	3	0	0	-3.537	-10.6485	
67	1	3	0	0	-2.8296	-9.4232	
68	1	3	-0.115	0	-3.537	-8.198	
69	1	3	-0.115	0	-0.7074	-27.802	
70	1	3	0	0	-1.4148	-26.5767	
71	1	3	0	0	-0.7074	-25.3515	
72	1	5	0.265	0	-1.4148	-24.1262	
73	1	5	0.265	0	-0.7074	-22.901	
74	1	3	0	0	-1.4148	-21.6757	
75	1	5	0.265	0	-0.7074	-20.4505	
76	1	3	0	0	-1.4148	-19.2252	
77	1	3	0	0	-0.7074	-18	
78	1	3	0	0	-1.4148	-16.7747	
79	1	3	0	0	-0.7074	-15.5495	
80	1	3	0	0	-1.4148	-14.3242	
81	1	3	0	0	-0.7074	-13.099	
82	1	3	0	0	-1.4148	-11.8737	
83	1	3	0	0	-0.7074	-10.6485	
84	1	3	0	0	-1.4148	-9.4232	
85	1	13	0.15	0	-0.7074	-8.198	
86	1	3	-0.115	0	0.7074	-27.802	
87	1	3	0	0	1.4148	-26.5767	
88	1	5	0.265	0	0.7074	-25.3515	
89	1	5	0.265	0	1.4148	-24.1262	
90	1	3	0	0	0.7074	-22.901	
91	1	3	0	0	1.4148	-21.6757	
92	1	5	0.265	0	0.7074	-20.4505	
93	1	3	0	0	1.4148	-19.2252	
94	1	3	0	0	0.7074	-18	
95	1	3	0	0	1.4148	-16.7747	
96	1	3	0	0	0.7074	-15.5495	
97	1	3	0	0	1.4148	-14.3242	
98	1	3	0	0	0.7074	-13.099	
99	1	3	0	0	1.4148	-11.8737	
100	1	3	0	0	0.7074	-10.6485	
101	1	3	0	0	1.4148	-9.4232	
102	1	3	-0.115	0	0.7074	-8.198	
103	1	13	0.15	0	3.537	-27.802	
104	1	3	0	0	2.8296	-26.5767	
105	1	3	0	0	3.537	-25.3515	
106	1	3	0	0	2.8296	-24.1262	
107	1	5	0.265	0	3.537	-22.901	
108	1	5	0.265	0	2.8296	-21.6757	
109	1	3	0	0	3.537	-20.4505	
110	1	3	0	0	2.8296	-19.2252	
111	1	3	0	0	3.537	-18	
112	1	3	0	0	2.8296	-16.7747	
113	1	3	0	0	3.537	-15.5495	
114	1	3	0	0	2.8296	-14.3242	
115	1	3	0	0	3.537	-13.099	
116	1	3	0	0	2.8296	-11.8737	
117	1	3	0	0	3.537	-10.6485	
118	1	3	0	0	2.8296	-9.4232	
119	1	3	-0.115	0	3.537	-8.198	
120	1	13	0.15	0	4.9518	-27.802	
121	1	3	0	0	5.6592	-26.5767	
122	1	3	0	0	4.9518	-25.3515	
123	1	3	0	0	5.6592	-24.1262	
124	1	3	0	0	4.9518	-22.901	
125	1	5	0.265	0	5.6592	-21.6757	
126	1	5	0.265	0	4.9518	-20.4505	
127	1	3	0	0	5.6592	-19.2252	
128	1	3	0	0	4.9518	-18	
129	1	3	0	0	5.6592	-16.7747	
130	1	3	0	0	4.9518	-15.5495	
131	1	3	0	0	5.6592	-14.3242	
132	1	3	0	0	4.9518	-13.099	
133	1	3	0	0	5.6592	-11.8737	
134	1	3	0	0	4.9518	-10.6485	
135	1	3	0	0	5.6592	-9.4232	
136	1	3	-0.115	0	4.9518	-8.198	
137	1	3	-0.115	0	7.7814	-27.802	
138	1	3	0	0	7.074	-26.5767	
139	1	3	0	0	7.7814	-25.3515	
140	1	3	0	0	7.074	-24.1262	
141	1	3	0	0	7.7814	-22.901	
142	1	3	0	0	7.074	-21.6757	
143	1	3	0	0	7.7814	-20.4505	
144	1	3	0	0	7.074	-19.2252	
145	1	3	0	0	7.7814	-18	
146	1	3	0	0	7.074	-16.7747	
147	1	3	0	0	7.7814	-15.5495	
148	1	3	0	0	7.074	-14.3242	
149	1	3	0	0	7.7814	-13.099	
150	1	3	0	0	7.074	-11.8737	
151	1	3	0	0	7.7814	-10.6485	
152	1	3	0	0	7.074	-9.4232	
153	1	3	-0.115	0	7.7814	-8.198	
154	1	3	-0.115	0	9.1962	-27.802	
155	1	3	-0.115	0	9.9036	-26.5767	
156	1	3	0	0	9.1962	-25.3515	
157	1	3	-0.115	0	9.9036	-24.1262	
158	1	3	0	0	9.1962	-22.901	
159	1	3	-0.115	0	9.9036	-21.6757	
160	1	3	0	0	9.1962	-20.4505	
161	1	3	-0.115	0	9.9036	-19.2252	
162	1	3	0	0	9.1962	-18	
163	1	3	-0.115	0	9.9036	-16.7747	
164	1	3	0	0	9.1962	-15.5495	
165	1	13	0.15	0	9.9036	-14.3242	
166	1	3	0	0	9.1962	-13.099	
167	1	13	0.15	0	9.9036	-11.8737	
168	1	3	0	0	9.1962	-10.6485	
169	1	3	-0.115	0	9.9036	-9.4232	
170	1	13	0.15	0	9.1962	-8.198	
171	1	4	0.115	0	-10.9806	-26.5767	
172	1	4	0.115	0	-10.9806	-24.1262	
173	1	4	0.115	0	-10.9806	-21.6757	
174	1	4	0.115	0	-10.9806	-19.2252	
175	1	9	-0.585	0	-11.3036	-16.7747	
176	1	4	0.115	0	-10.9806	-14.3242	
177	1	9	-0.585	0	-11.3036	-11.8737	
178	1	4	0.115	0	-10.9806	-9.4232	
179	1	4	0.115	0	10.9806	-26.5767	
180	1	4	0.115	0	10.9806	-24.1262	
181	1	4	0.115	0	10.9806	-21.6757	
182	1	4	0.115	0	10.9806	-19.2252	
183	1	4	0.115	0	10.9806	-16.7747	
184	1	9	-0.585	0	11.3036	-14.3242	
185	1	9	-0.585	0	11.3036	-11.8737	
186	1	4	0.115	0	10.9806	-9.4232	
187	1	4	0.115	0	-9.7347	-28.7347	
188	1	9	-0.585	0	-7.0814	-29.0144	
189	1	4	0.115	0	-9.7347	-7.2652	
190	1	4	0.115	0	-7.2429	-7.2652	
191	1	9	-0.585	0	-5.6518	-29.0144	
192	1	4	0.115	0	-2.9985	-28.7347	
193	1	9	-0.585	0	-5.6518	-6.9855	
194	1	4	0.115	0	-2.9985	-7.2652	
195	1	4	0.115	0	-1.2459	-28.7347	
196	1	4	0.115	0	1.2459	-28.7347	
197	1	9	-0.585	0	-1.4074	-6.9855	
198	1	4	0.115	0	1.2459	-7.2652	
199	1	9	-0.585	0	2.837	-29.0144	
200	1	9	-0.585	0	5.6518	-29.0144	
201	1	4	0.115	0	2.9985	-7.2652	
202	1	4	0.115	0	5.4903	-7.2652	
203	1	4	0.115	0	7.2429	-28.7347	
204	1	4	0.115	0	9.7347	-28.7347	
205	1	4	0.115	0	7.2429	-7.2652	
206	1	9	-0.585	0	9.8962	-6.9855	
207	1	7	0.435	-0.7	-12.0036	-16.7747	
208	1	7	0.435	-0.7	-12.0036	-11.8737	
209	1	7	0.435	-0.7	12.0036	-14.3242	
210	1	7	0.435	0.7	12.0036	-11.8737	
211	1	7	0.435	-0.7	-6.7314	-29.6207	
212	1	7	0.435	-0.7	-6.0018	-29.6207	
213	1	7	0.435	-0.7	-6.0018	-6.3793	
214	1	7	0.435	-0.7	-1.7574	-6.3793	
215	1	7	0.435	0.7	2.487	-29.6207	
216	1	7	0.435	0.7	6.0018	-29.6207	
217	1	7	0.435	0.7	10.2462	-6.3793	
218	1	6	-0.683	1.4	-4.9518	-25.3515	
219	1	7	0.418	2.4	-4.9518	-25.3515	
220	1	6	-0.683	-1.4	-5.6592	-26.5767	
221	1	7	0.418	-2.4	-5.6592	-26.5767	
222	1	6	-0.683	1.4	-5.6592	-24.1262	
223	1	7	0.418	2.4	-5.6592	-24.1262	
224	1	6	-0.683	-1.4	-1.4148	-24.1262	
225	1	7	0.418	-2.4	-1.4148	-24.1262	
226	1	6	-0.683	-1.4	-4.9518	-22.901	
227	1	7	0.418	-2.4	-4.9518	-22.901	
228	1	6	-0.683	1.4	-2.8296	-21.6757	
229	1	7	0.418	2.4	-2.8296	-21.6757	
230	1	6	-0.683	1.4	0.7074	-25.3515	
231	1	7	0.418	2.4	0.7074	-25.3515	
232	1	6	-0.683	-1.4	-0.7074	-22.901	
233	1	7	0.418	-2.4	-0.7074	-22.901	
234	1	6	-0.683	1.4	0.7074	-20.4505	
235	1	7	0.418	2.4	0.7074	-20.4505	
236	1	6	-0.683	-1.4	1.4148	-24.1262	
237	1	7	0.418	-2.4	1.4148	-24.1262	
238	1	6	-0.683	1.4	-0.7074	-20.4505	
239	1	7	0.418	2.4	-0.7074	-20.4505	
240	1	6	-0.683	-1.4	-3.537	-20.4505	
241	1	7	0.418	-2.4	-3.537	-20.4505	
242	1	6	-0.683	1.4	-4.9518	-20.4505	
243	1	7	0.418	2.4	-4.9518	-20.4505	
244	1	6	-0.683	-1.4	-4.9518	-18	
245	1	7	0.418	-2.4	-4.9518	-18	
246	1	6	-0.683	-1.4	-3.537	-22.901	
247	1	7	0.418	-2.4	-3.537	-22.901	
248	1	6	-0.683	-1.4	2.8296	-21.6757	
249	1	7	0.418	-2.4	2.8296	-21.6757	
250	1	6	-0.683	1.4	-7.7814	-18	
251	1	7	0.418	2.4	-7.7814	-18	
252	1	6	-0.683	1.4	3.537	-22.901	
253	1	7	0.418	2.4	3.537	-22.901	
254	1	6	-0.683	1.4	4.9518	-20.4505	
255	1	7	0.418	2.4	4.9518	-20.4505	
256	1	6	-0.683	-1.4	-7.074	-16.7747	
257	1	7	0.418	-2.4	-7.074	-16.7747	
258	1	6	-0.683	1.4	5.6592	-21.6757	
259	1	7	0.418	2.4	5.6592	-21.6757	
260	1	6	-0.683	1.4	-5.6592	-16.7747	
261	1	7	0.418	2.4	-5.6592	-16.7747	
262	1	6	-0.683	-1.4	-2.8296	-19.2252	
263	1	7	0.418	-2.4	-2.8296	-19.2252	
264	2	1	-0.8476	-26.324	-26.3202	-46.0421	
265	2	2	0.4238	-25.324	-26.3202	-46.0421	
266	2	2	0.4238	-26.6573	-25.3774	-46.0421	
267	3	1	-0.8476	-22.9389	-26.3818	-45.9665	
268	3	2	0.4238	-21.9389	-26.3818	-45.9665	
269	3	2	0.4238	-23.2722	-25.439	-45.9665	
270	4	1	-0.8476	-19.5809	-26.355	-45.9589	
271	4	2	0.4238	-18.5809	-26.355	-45.9589	
272	4	2	0.4238	-19.9142	-25.4122	-45.9589	
273	5	1	-0.8476	-16.1344	-26.3638	-46.037	
274	5	2	0.4238	-15.1344	-26.3638	-46.037	
275	5	2	0.4238	-16.4677	-25.421	-46.037	
276	6	1	-0.8476	-12.7802	-26.3909	-46.0247	
277	6	2	0.4238	-11.7802	-26.3909	-46.0247	
278	6	2	0.4238	-13.1135	-25.4481	-46.0247	
279	7	1	-0.8476	-9.3671	-26.3968	-45.9657	
280	7	2	0.4238	-8.3671	-26.3968	-45.9657	
281	7	2	0.4238	-9.7004	-25.454	-45.9657	
282	8	1	-0.8476	-5.9841	-26.3077	-45.9785	
283	8	2	0.4238	-4.9841	-26.3077	-45.9785	
284	8	2	0.4238	-6.3174	-25.3649	-45.9785	
285	9	1	-0.8476	-2.5512	-26.3978	-45.9571	
286	9	2	0.4238	-1.5512	-26.3978	-45.9571	
287	9	2	0.4238	-2.8845	-25.455	-45.9571	
288	10	1	-0.8476	0.82364	-26.3494	-46.0118	
289	10	2	0.4238	1.8236	-26.3494	-46.0118	
290	10	2	0.4238	0.49033	-25.4066	-46.0118	
291	11	1	-0.8476	4.2459	-26.3694	-45.958	
292	11	2	0.4238	5.2459	-26.3694	-45.958	
293	11	2	0.4238	3.9126	-25.4266	-45.958	
294	12	1	-0.8476	7.68	-26.3332	-46.0242	
295	12	2	0.4238	8.68	-26.3332	-46.0242	
296	12	2	0.4238	7.3467	-25.3904	-46.0242	
297	13	1	-0.8476	11.0957	-26.3592	-45.9986	
298	13	2	0.4238	12.0957	-26.3592	-45.9986	
299	13	2	0.4238	10.7624	-25.4164	-45.9986	
300	14	1	-0.8476	14.42	-26.3315	-45.9684	
301	14	2	0.4238	15.42	-26.3315	-45.9684	
302	14	2	0.4238	14.0867	-25.3887	-45.9684	
303	15	1	-0.8476	17.887	-26.3356	-46.0347	
304	15	2	0.4238	18.887	-26.3356	-46.0347	
305	15	2	0.4238	17.5537	-25.3928	-46.0347	
306	16	1	-0.8476	21.2685	-26.302	-45.9914	
307	16	2	0.4238	22.2685	-26.302	-45.9914	
308	16	2	0.4238	20.9352	-25.3592	-45.9914	
309	17	1	-0.8476	24.6976	-26.3825	-45.9775	
310	17	2	0.4238	25.6976	-26.3825	-45.9775	
311	17	2	0.4238	24.3643	-25.4397	-45.9775	
312	18	1	-0.8476	-26.3349	-22.9588	-46.0219	
313	18	2	0.4238	-25.3349	-22.9588	-46.0219	
314	18	2	0.4238	-26.6682	-22.016	-46.0219	
315	19	1	-0.8476	-22.9279	-22.9884	-45.9524	
316	19	2	0.4238	-21.9279	-22.9884	-45.9524	
317	19	2	0.4238	-23.2612	-22.0456	-45.9524	
318	20	1	-0.8476	-19.5606	-22.952	-45.9833	
319	20	2	0.4238	-18.5606	-22.952	-45.9833	
320	20	2	0.4238	-19.8939	-22.0092	-45.9833	
321	21	1	-0.8476	-16.114	-22.9027	-45.9967	
322	21	2	0.4238	-15.114	-22.9027	-45.9967	
323	21	2	0.4238	-16.4473	-21.9599	-45.9967	
324	22	1	-0.8476	-12.7169	-22.9129	-45.9614	
325	22	2	0.4238	-11.7169	-22.9129	-45.9614	
326	22	2	0.4238	-13.0502	-21.9701	-45.9614	
327	23	1	-0.8476	-9.313	-22.983	-45.9813	
328	23	2	0.4238	-8.313	-22.983	-45.9813	
329	23	2	0.4238	-9.6463	-22.0402	-45.9813	
330	24	1	-0.8476	-5.9321	-22.9618	-45.9742	
331	24	2	0.4238	-4.9321	-22.9618	-45.9742	
332	24	2	0.4238	-6.2654	-22.019	-45.9742	
333	25	1	-0.8476	-2.5427	-22.9781	-46.0267	
334	25	2	0.4238	-1.5427	-22.9781	-46.0267	
335	25	2	0.4238	-2.876	-22.0353	-46.0267	
336	26	1	-0.8476	0.86852	-22.9033	-45.9874	
337	26	2	0.4238	1.8685	-22.9033	-45.9874	
338	26	2	0.4238	0.53521	-21.9605	-45.9874	
339	27	1	-0.8476	4.2713	-22.9835	-45.9796	
340	27	2	0.4238	5.2713	-22.9835	-45.9796	
341	27	2	0.4238	3.938	-22.0407	-45.9796	
342	28	1	-0.8476	7.6345	-22.9516	-45.9798	
343	28	2	0.4238	8.6345	-22.9516	-45.9798	
344	28	2	0.4238	7.3012	-22.0088	-45.9798	
345	29	1	-0.8476	11.0294	-22.9151	-46.0393	
346	29	2	0.4238	12.0294	-22.9151	-46.0393	
347	29	2	0.4238	10.6961	-21.9723	-46.0393	
348	30	1	-0.8476	14.4545	-22.9779	-46.0326	
349	30	2	0.4238	15.4545	-22.9779	-46.0326	
350	30	2	0.4238	14.1212	-22.0351	-46.0326	
351	31	1	-0.8476	17.8641	-22.9794	-46.0472	
352	31	2	0.4238	18.8641	-22.9794	-46.0472	
353	31	2	0.4238	17.5307	-22.0366	-46.0472	
354	32	1	-0.8476	21.2093	-22.9762	-46.0493	
355	32	2	0.4238	22.2093	-22.9762	-46.0493	
356	32	2	0.4238	20.876	-22.0334	-46.0493	
357	33	1	-0.8476	24.6317	-22.9034	-46.005	
358	33	2	0.4238	25.6317	-22.9034	-46.005	
359	33	2	0.4238	24.2984	-21.9606	-46.005	
360	34	1	-0.8476	-26.3808	-19.5531	-45.9576	
361	34	2	0.4238	-25.3808	-19.5531	-45.9576	
362	34	2	0.4238	-26.7141	-18.6103	-45.9576	
363	35	1	-0.8476	-22.9643	-19.5142	-45.9899	
364	35	2	0.4238	-21.9643	-19.5142	-45.9899	
365	35	2	0.4238	-23.2976	-18.5714	-45.9899	
366	36	1	-0.8476	-19.5463	-19.5549	-46.0385	
367	36	2	0.4238	-18.5463	-19.5549	-46.0385	
368	36	2	0.4238	-19.8796	-18.6121	-46.0385	
369	37	1	-0.8476	-16.1621	-19.5913	-46.0038	
370	37	2	0.4238	-15.1621	-19.5913	-46.0038	
371	37	2	0.4238	-16.4954	-18.6485	-46.0038	
372	38	1	-0.8476	-12.7744	-19.5204	-46.0156	
373	38	2	0.4238	-11.7744	-19.5204	-46.0156	
374	38	2	0.4238	-13.1077	-18.5776	-46.0156	
375	39	1	-0.8476	-9.3944	-19.5103	-45.9507	
376	39	2	0.4238	-8.3944	-19.5103	-45.9507	
377	39	2	0.4238	-9.7277	-18.5675	-45.9507	
378	40	1	-0.8476	-5.9183	-19.5376	-45.9858	
379	40	2	0.4238	-4.9183	-19.5376	-45.9858	
380	40	2	0.4238	-6.2516	-18.5948	-45.9858	
381	41	1	-0.8476	-2.5768	-19.5032	-45.9636	
382	41	2	0.4238	-1.5768	-19.5032	-45.9636	
383	41	2	0.4238	-2.9102	-18.5604	-45.9636	
384	42	1	-0.8476	0.88123	-19.5675	-46.0058	
385	42	2	0.4238	1.8812	-19.5675	-46.0058	
386	42	2	0.4238	0.54792	-18.6247	-46.0058	
387	43	1	-0.8476	4.2766	-19.5336	-45.9951	
388	43	2	0.4238	5.2766	-19.5336	-45.9951	
389	43	2	0.4238	3.9433	-18.5908	-45.9951	
390	44	1	-0.8476	7.6869	-19.581	-45.9506	
391	44	2	0.4238	8.6869	-19.581	-45.9506	
392	44	2	0.4238	7.3536	-18.6382	-45.9506	
393	45	1	-0.8476	11.081	-19.5709	-45.9788	
394	45	2	0.4238	12.081	-19.5709	-45.9788	
395	45	2	0.4238	10.7476	-18.6281	-45.9788	
396	46	1	-0.8476	14.4293	-19.5166	-46.0237	
397	46	2	0.4238	15.4293	-19.5166	-46.0237	
398	46	2	0.4238	14.096	-18.5738	-46.0237	
399	47	1	-0.8476	17.8054	-19.5469	-46.0345	
400	47	2	0.4238	18.8054	-19.5469	-46.0345	
401	47	2	0.4238	17.4721	-18.6041	-46.0345	
402	48	1	-0.8476	21.2181	-19.563	-46.0044	
403	48	2	0.4238	22.2181	-19.563	-46.0044	
404	48	2	0.4238	20.8848	-18.6202	-46.0044	
405	49	1	-0.8476	24.6083	-19.541	-46.0181	
406	49	2	0.4238	25.6083	-19.541	-46.0181	
407	49	2	0.4238	24.275	-18.5982	-46.0181	
408	50	1	-0.8476	-26.3952	-16.1364	-46.0263	
409	50	2	0.4238	-25.3952	-16.1364	-46.0263	
410	50	2	0.4238	-26.7285	-15.1936	-46.0263	
411	51	1	-0.8476	-22.9819	-16.1543	-46.0476	
412	51	2	0.4238	-21.9819	-16.1543	-46.0476	
413	51	2	0.4238	-23.3152	-15.2115	-46.0476	
414	52	1	-0.8476	-19.5961	-16.1958	-45.9505	
415	52	2	0.4238	-18.5961	-16.1958	-45.9505	
416	52	2	0.4238	-19.9294	-15.253	-45.9505	
417	53	1	-0.8476	-16.1852	-16.1894	-45.9572	
418	53	2	0.4238	-15.1852	-16.1894	-45.9572	
419	53	2	0.4238	-16.5185	-15.2466	-45.9572	
420	54	1	-0.8476	-12.7816	-16.1678	-45.9876	
421	54	2	0.4238	-11.7816	-16.1678	-45.9876	
422	54	2	0.4238	-13.1149	-15.225	-45.9876	
423	55	1	-0.8476	-9.3719	-16.105	-46.0324	
424	55	2	0.4238	-8.3719	-16.105	-46.0324	
425	55	2	0.4238	-9.7052	-15.1622	-46.0324	
426	56	1	-0.8476	-5.9973	-16.1337	-46.04	
427	56	2	0.4238	-4.9973	-16.1337	-46.04	
428	56	2	0.4238	-6.3306	-15.1909	-46.04	
429	57	1	-0.8476	-2.5212	-16.1129	-45.9863	
430	57	2	0.4238	-1.5212	-16.1129	-45.9863	
431	57	2	0.4238	-2.8545	-15.1701	-45.9863	
432	58	1	-0.8476	0.89882	-16.1251	-46.0283	
433	58	2	0.4238	1.8988	-16.1251	-46.0283	
434	58	2	0.4238	0.56551	-15.1823	-46.0283	
435	59	1	-0.8476	4.2363	-16.1271	-46.0248	
436	59	2	0.4238	5.2363	-16.1271	-46.0248	
437	59	2	0.4238	3.903	-15.1843	-46.0248	
438	60	1	-0.8476	7.6656	-16.125	-46.0052	
439	60	2	0.4238	8.6656	-16.125	-46.0052	
440	60	2	0.4238	7.3323	-15.1822	-46.0052	
441	61	1	-0.8476	11.027	-16.1628	-45.9905	
442	61	2	0.4238	12.027	-16.1628	-45.9905	
443	61	2	0.4238	10.6937	-15.22	-45.9905	
444	62	1	-0.8476	14.4543	-16.1895	-46.0256	
445	62	2	0.4238	15.4543	-16.1895	-46.0256	
446	62	2	0.4238	14.121	-15.2467	-46.0256	
447	63	1	-0.8476	17.8723	-16.1183	-46.0368	
448	63	2	0.4238	18.8723	-16.1183	-46.0368	
449	63	2	0.4238	17.539	-15.1755	-46.0368	
450	64	1	-0.8476	21.2759	-16.1169	-46.0359	
451	64	2	0.4238	22.2759	-16.1169	-46.0359	
452	64	2	0.4238	20.9426	-15.1741	-46.0359	
453	65	1	-0.8476	24.614	-16.1512	-45.9671	
454	65	2	0.4238	25.614	-16.1512	-45.9671	
455	65	2	0.4238	24.2807	-15.2084	-45.9671	
456	66	1	-0.8476	-26.3572	-12.7531	-45.9731	
457	66	2	0.4238	-25.3572	-12.7531	-45.9731	
458	66	2	0.4238	-26.6905	-11.8103	-45.9731	
459	67	1	-0.8476	-22.9457	-12.7765	-45.9904	
460	67	2	0.4238	-21.9457	-12.7765	-45.9904	
461	67	2	0.4238	-23.279	-11.8337	-45.9904	
462	68	1	-0.8476	-19.5786	-12.7294	-45.9807	
463	68	2	0.4238	-18.5786	-12.7294	-45.9807	
464	68	2	0.4238	-19.9119	-11.7866	-45.9807	
465	69	1	-0.8476	-16.1219	-12.7781	-46.0127	
466	69	2	0.4238	-15.1219	-12.7781	-46.0127	
467	69	2	0.4238	-16.4552	-11.8353	-46.0127	
468	70	1	-0.8476	-12.7127	-12.7795	-46.0364	
469	70	2	0.4238	-11.7127	-12.7795	-46.0364	
470	70	2	0.4238	-13.046	-11.8367	-46.0364	
471	71	1	-0.8476	-9.3078	-12.7139	-45.9591	
472	71	2	0.4238	-8.3078	-12.7139	-45.9591	
473	71	2	0.4238	-9.6412	-11.7711	-45.9591	
474	72	1	-0.8476	-5.9085	-12.7073	-46.0358	
475	72	2	0.4238	-4.9085	-12.7073	-46.0358	
476	72	2	0.4238	-6.2418	-11.7645	-46.0358	
477	73	1	-0.8476	-2.5985	-12.7974	-46.039	
478	73	2	0.4238	-1.5985	-12.7974	-46.039	
479	73	2	0.4238	-2.9318	-11.8546	-46.039	
480	74	1	-0.8476	0.80025	-12.7993	-45.9882	
481	74	2	0.4238	1.8003	-12.7993	-45.9882	
482	74	2	0.4238	0.46694	-11.8565	-45.9882	
483	75	1	-0.8476	4.2182	-12.7768	-46.0428	
484	75	2	0.4238	5.2182	-12.7768	-46.0428	
485	75	2	0.4238	3.8849	-11.834	-46.0428	
486	76	1	-0.8476	7.6448	-12.7692	-46.0065	
487	76	2	0.4238	8.6448	-12.7692	-46.0065	
488	76	2	0.4238	7.3115	-11.8264	-46.0065	
489	77	1	-0.8476	11.0343	-12.7564	-45.959	
490	77	2	0.4238	12.0343	-12.7564	-45.959	
491	77	2	0.4238	10.701	-11.8136	-45.959	
492	78	1	-0.8476	14.4867	-12.7059	-46.0025	
493	78	2	0.4238	15.4867	-12.7059	-46.0025	
494	78	2	0.4238	14.1534	-11.7631	-46.0025	
495	79	1	-0.8476	17.8395	-12.7632	-46.0273	
496	79	2	0.4238	18.8395	-12.7632	-46.0273	
497	79	2	0.4238	17.5062	-11.8204	-46.0273	
498	80	1	-0.8476	21.2988	-12.7845	-46.0206	
499	80	2	0.4238	22.2988	-12.7845	-46.0206	
500	80	2	0.4238	20.9655	-11.8417	-46.0206	
501	81	1	-0.8476	24.6581	-12.7267	-46.0161	
502	81	2	0.4238	25.6581	-12.7267	-46.0161	
503	81	2	0.4238	24.3248	-11.7839	-46.0161	
504	82	1	-0.8476	-26.3586	-9.3623	-46.0217	
505	82	2	0.4238	-25.3586	-9.3623	-46.0217	
506	82	2	0.4238	-26.6919	-8.4195	-46.0217	
507	83	1	-0.8476	-22.9452	-9.3777	-45.9818	
508	83	2	0.4238	-21.9452	-9.3777	-45.9818	
509	83	2	0.4238	-23.2786	-8.4349	-45.9818	
510	84	1	-0.8476	-19.5919	-9.3678	-45.9813	
511	84	2	0.4238	-18.5919	-9.3678	-45.9813	
512	84	2	0.4238	-19.9252	-8.425	-45.9813	
513	85	1	-0.8476	-16.1761	-9.309	-46.0348	
514	85	2	0.4238	-15.1761	-9.309	-46.0348	
515	85	2	0.4238	-16.5095	-8.3662	-46.0348	
516	86	1	-0.8476	-12.761	-9.3512	-46.0399	
517	86	2	0.4238	-11.761	-9.3512	-46.0399	
518	86	2	0.4238	-13.0943	-8.4084	-46.0399	
519	87	1	-0.8476	-9.3495	-9.3489	-45.997	
520	87	2	0.4238	-8.3495	-9.3489	-45.997	
521	87	2	0.4238	-9.6829	-8.4061	-45.997	
522	88	1	-0.8476	-5.9845	-9.3766	-45.9881	
523	88	2	0.4238	-4.9845	-9.3766	-45.9881	
524	88	2	0.4238	-6.3179	-8.4338	-45.9881	
525	89	1	-0.8476	-2.5691	-9.3787	-46.0217	
526	89	2	0.4238	-1.5691	-9.3787	-46.0217	
527	89	2	0.4238	-2.9024	-8.4359	-46.0217	
528	90	1	-0.8476	0.85438	-9.3281	-46.0461	
529	90	2	0.4238	1.8544	-9.3281	-46.0461	
530	90	2	0.4238	0.52107	-8.3853	-46.0461	
531	91	1	-0.8476	4.2648	-9.3201	-45.9609	
532	91	2	0.4238	5.2648	-9.3201	-45.9609	
533	91	2	0.4238	3.9315	-8.3773	-45.9609	
534	92	1	-0.8476	7.6418	-9.3384	-45.9647	
535	92	2	0.4238	8.6418	-9.3384	-45.9647	
536	92	2	0.4238	7.3085	-8.3956	-45.9647	
537	93	1	-0.8476	11.0637	-9.354	-46.0307	
538	93	2	0.4238	12.0637	-9.354	-46.0307	
539	93	2	0.4238	10.7304	-8.4112	-46.0307	
540	94	1	-0.8476	14.4304	-9.3453	-46.0292	
541	94	2	0.4238	15.4304	-9.3453	-46.0292	
542	94	2	0.4238	14.0971	-8.4025	-46.0292	
543	95	1	-0.8476	17.8351	-9.3293	-45.9558	
544	95	2	0.4238	18.8351	-9.3293	-45.9558	
545	95	2	0.4238	17.5018	-8.3865	-45.9558	
546	96	1	-0.8476	21.2816	-9.3451	-45.9571	
547	96	2	0.4238	22.2816	-9.3451	-45.9571	
548	96	2	0.4238	20.9483	-8.4023	-45.9571	
549	97	1	-0.8476	24.6828	-9.3361	-45.9743	
550	97	2	0.4238	25.6828	-9.3361	-45.9743	
551	97	2	0.4238	24.3495	-8.3933	-45.9743	
552	98	1	-0.8476	-26.3209	-5.9161	-46.0267	
553	98	2	0.4238	-25.3209	-5.9161	-46.0267	
554	98	2	0.4238	-26.6542	-4.9733	-46.0267	
555	99	1	-0.8476	-22.9526	-5.9153	-46.0375	
556	99	2	0.4238	-21.9526	-5.9153	-46.0375	
557	99	2	0.4238	-23.2859	-4.9725	-46.0375	
558	100	1	-0.8476	-19.5212	-5.9496	-45.9693	
559	100	2	0.4238	-18.5212	-5.9496	-45.9693	
560	100	2	0.4238	-19.8545	-5.0068	-45.9693	
561	101	1	-0.8476	-16.1031	-5.9739	-46.0213	
562	101	2	0.4238	-15.1031	-5.9739	-46.0213	
563	101	2	0.4238	-16.4364	-5.0311	-46.0213	
564	102	1	-0.8476	-12.7709	-5.9041	-46.0184	
565	102	2	0.4238	-11.7709	-5.9041	-46.0184	
566	102	2	0.4238	-13.1042	-4.9613	-46.0184	
567	103	1	-0.8476	-9.3463	-5.978	-46.0338	
568	103	2	0.4238	-8.3463	-5.978	-46.0338	
569	103	2	0.4238	-9.6796	-5.0352	-46.0338	
570	104	1	-0.8476	-5.9663	-5.9373	-45.9582	
571	104	2	0.4238	-4.9663	-5.9373	-45.9582	
572	104	2	0.4238	-6.2996	-4.9945	-45.9582	
573	105	1	-0.8476	-2.559	-5.9968	-46.0081	
574	105	2	0.4238	-1.559	-5.9968	-46.0081	
575	105	2	0.4238	-2.8923	-5.054	-46.0081	
576	106	1	-0.8476	0.88568	-5.9904	-45.963	
577	106	2	0.4238	1.8857	-5.9904	-45.963	
578	106	2	0.4238	0.55237	-5.0476	-45.963	
579	107	1	-0.8476	4.2683	-5.9755	-46.0034	
580	107	2	0.4238	5.2683	-5.9755	-46.0034	
581	107	2	0.4238	3.935	-5.0327	-46.0034	
582	108	1	-0.8476	7.6791	-5.9745	-46.0084	
583	108	2	0.4238	8.6791	-5.9745	-46.0084	
584	108	2	0.4238	7.3458	-5.0317	-46.0084	
585	109	1	-0.8476	11.0941	-5.9691	-46.0494	
586	109	2	0.4238	12.0941	-5.9691	-46.0494	
587	109	2	0.4238	10.7608	-5.0263	-46.0494	
588	110	1	-0.8476	14.4505	-5.9493	-46.0126	
589	110	2	0.4238	15.4505	-5.9493	-46.0126	
590	110	2	0.4238	14.1172	-5.0065	-46.0126	
591	111	1	-0.8476	17.8625	-5.9212	-46.0234	
592	111	2	0.4238	18.8625	-5.9212	-46.0234	
593	111	2	0.4238	17.5292	-4.9784	-46.0234	
594	112	1	-0.8476	21.2382	-5.9544	-46.0259	
595	112	2	0.4238	22.2382	-5.9544	-46.0259	
596	112	2	0.4238	20.9049	-5.0116	-46.0259	
597	113	1	-0.8476	24.6823	-5.9126	-45.9865	
598	113	2	0.4238	25.6823	-5.9126	-45.9865	
599	113	2	0.4238	24.349	-4.9698	-45.9865	
600	114	1	-0.8476	-26.3116	-2.533	-46.0063	
601	114	2	0.4238	-25.3116	-2.533	-46.0063	
602	114	2	0.4238	-26.6449	-1.5902	-46.0063	
603	115	1	-0.8476	-22.9594	-2.5468	-45.9884	
604	115	2	0.4238	-21.9594	-2.5468	-45.9884	
605	115	2	0.4238	-23.2927	-1.604	-45.9884	
606	116	1	-0.8476	-19.54	-2.5711	-46.0428	
607	116	2	0.4238	-18.54	-2.5711	-46.0428	
608	116	2	0.4238	-19.8733	-1.6283	-46.0428	
609	117	1	-0.8476	-16.1876	-2.5528	-45.9941	
610	117	2	0.4238	-15.1876	-2.5528	-45.9941	
611	117	2	0.4238	-16.521	-1.61	-45.9941	
612	118	1	-0.8476	-12.778	-2.5613	-45.9612	
613	118	2	0.4238	-11.778	-2.5613	-45.9612	
614	118	2	0.4238	-13.1113	-1.6185	-45.9612	
615	119	1	-0.8476	-9.3304	-2.5586	-46.0262	
616	119	2	0.4238	-8.3304	-2.5586	-46.0262	
617	119	2	0.4238	-9.6637	-1.6158	-46.0262	
618	120	1	-0.8476	-5.905	-2.5541	-45.9928	
619	120	2	0.4238	-4.905	-2.5541	-45.9928	
620	120	2	0.4238	-6.2383	-1.6113	-45.9928	
621	121	1	-0.8476	-2.5368	-2.5714	-45.9662	
622	121	2	0.4238	-1.5368	-2.5714	-45.9662	
623	121	2	0.4238	-2.8701	-1.6286	-45.9662	
624	122	1	-0.8476	0.8169	-2.5479	-45.957	
625	122	2	0.4238	1.8169	-2.5479	-45.957	
626	122	2	0.4238	0.48359	-1.6051	-45.957	
627	123	1	-0.8476	4.2698	-2.5011	-46.0215	
628	123	2	0.4238	5.2698	-2.5011	-46.0215	
629	123	2	0.4238	3.9365	-1.5583	-46.0215	
630	124	1	-0.8476	7.6706	-2.5762	-45.9924	
631	124	2	0.4238	8.6706	-2.5762	-45.9924	
632	124	2	0.4238	7.3373	-1.6334	-45.9924	
633	125	1	-0.8476	11.0752	-2.5803	-45.9845	
634	125	2	0.4238	12.0752	-2.5803	-45.9845	
635	125	2	0.4238	10.7419	-1.6375	-45.9845	
636	126	1	-0.8476	14.4158	-2.5159	-45.9623	
637	126	2	0.4238	15.4158	-2.5159	-45.9623	
638	126	2	0.4238	14.0824	-1.5731	-45.9623	
639	127	1	-0.8476	17.8549	-2.5278	-45.9978	
640	127	2	0.4238	18.8549	-2.5278	-45.9978	
641	127	2	0.4238	17.5216	-1.585	-45.9978	
642	128	1	-0.8476	21.2836	-2.5716	-45.9638	
643	128	2	0.4238	22.2836	-2.5716	-45.9638	
644	128	2	0.4238	20.9503	-1.6288	-45.9638	
645	129	1	-0.8476	24.6666	-2.5547	-45.9972	
646	129	2	0.4238	25.6666	-2.5547	-45.9972	
647	129	2	0.4238	24.3333	-1.6119	-45.9972	
648	130	1	-0.8476	-26.312	0.82378	-45.9599	
649	130	2	0.4238	-25.312	0.82378	-45.9599	
650	130	2	0.4238	-26.6453	1.7666	-45.9599	
651	131	1	-0.8476	-22.9601	0.80278	-46.0469	
652	131	2	0.4238	-21.9601	0.80278	-46.0469	
653	131	2	0.4238	-23.2934	1.7456	-46.0469	
654	132	1	-0.8476	-19.5389	0.83414	-46.0389	
655	132	2	0.4238	-18.5389	0.83414	-46.0389	
656	132	2	0.4238	-19.8722	1.7769	-46.0389	
657	133	1	-0.8476	-16.1179	0.87953	-46.0257	
658	133	2	0.4238	-15.1179	0.87953	-46.0257	
659	133	2	0.4238	-16.4512	1.8223	-46.0257	
660	134	1	-0.8476	-12.7995	0.87754	-46.0189	
661	134	2	0.4238	-11.7995	0.87754	-46.0189	
662	134	2	0.4238	-13.1328	1.8203	-46.0189	
663	135	1	-0.8476	-9.3662	0.84904	-46.0147	
664	135	2	0.4238	-8.3662	0.84904	-46.0147	
665	135	2	0.4238	-9.6995	1.7918	-46.0147	
666	136	1	-0.8476	-5.9401	0.83194	-46.0221	
667	136	2	0.4238	-4.9401	0.83194	-46.0221	
668	136	2	0.4238	-6.2734	1.7747	-46.0221	
669	137	1	-0.8476	-2.5976	0.84664	-45.965	
670	137	2	0.4238	-1.5976	0.84664	-45.965	
671	137	2	0.4238	-2.9309	1.7894	-45.965	
672	138	1	-0.8476	0.81065	0.89258	-46.0434	
673	138	2	0.4238	1.8106	0.89258	-46.0434	
674	138	2	0.4238	0.47734	1.8354	-46.0434	
675	139	1	-0.8476	4.2822	0.80163	-45.9778	
676	139	2	0.4238	5.2822	0.80163	-45.9778	
677	139	2	0.4238	3.9489	1.7444	-45.9778	
678	140	1	-0.8476	7.6403	0.83346	-46.0113	
679	140	2	0.4238	8.6403	0.83346	-46.0113	
680	140	2	0.4238	7.307	1.7763	-46.0113	
681	141	1	-0.8476	11.0014	0.84265	-45.9717	
682	141	2	0.4238	12.0014	0.84265	-45.9717	
683	141	2	0.4238	10.6681	1.7854	-45.9717	
684	142	1	-0.8476	14.4784	0.88679	-46.0273	
685	142	2	0.4238	15.4784	0.88679	-46.0273	
686	142	2	0.4238	14.1451	1.8296	-46.0273	
687	143	1	-0.8476	17.8532	0.88422	-46.0337	
688	143	2	0.4238	18.8532	0.88422	-46.0337	
689	143	2	0.4238	17.5198	1.827	-46.0337	
690	144	1	-0.8476	21.2017	0.86441	-46.0056	
691	144	2	0.4238	22.2017	0.86441	-46.0056	
692	144	2	0.4238	20.8684	1.8072	-46.0056	
693	145	1	-0.8476	24.6409	0.8562	-46.0363	
694	145	2	0.4238	25.6409	0.8562	-46.0363	
695	145	2	0.4238	24.3076	1.799	-46.0363	
696	146	1	-0.8476	-26.3807	4.2228	-45.9691	
697	146	2	0.4238	-25.3807	4.2228	-45.9691	
698	146	2	0.4238	-26.714	5.1656	-45.9691	
699	147	1	-0.8476	-22.9604	4.2444	-45.9708	
700	147	2	0.4238	-21.9604	4.2444	-45.9708	
701	147	2	0.4238	-23.2937	5.1872	-45.9708	
702	148	1	-0.8476	-19.559	4.2614	-45.9884	
703	148	2	0.4238	-18.559	4.2614	-45.9884	
704	148	2	0.4238	-19.8923	5.2042	-45.9884	
705	149	1	-0.8476	-16.1045	4.2315	-46.0465	
706	149	2	0.4238	-15.1045	4.2315	-46.0465	
707	149	2	0.4238	-16.4378	5.1743	-46.0465	
708	150	1	-0.8476	-12.7156	4.2294	-46.0094	
709	150	2	0.4238	-11.7156	4.2294	-46.0094	
710	150	2	0.4238	-13.0489	5.1722	-46.0094	
711	151	1	-0.8476	-9.3962	4.2613	-45.9701	
712	151	2	0.4238	-8.3962	4.2613	-45.9701	
713	151	2	0.4238	-9.7296	5.2041	-45.9701	
714	152	1	-0.8476	-5.961	4.2011	-45.9889	
715	152	2	0.4238	-4.961	4.2011	-45.9889	
716	152	2	0.4238	-6.2943	5.1439	-45.9889	
717	153	1	-0.8476	-2.5303	4.2774	-46.0007	
718	153	2	0.4238	-1.5303	4.2774	-46.0007	
719	153	2	0.4238	-2.8636	5.2202	-46.0007	
720	154	1	-0.8476	0.8128	4.218	-46.0281	
721	154	2	0.4238	1.8128	4.218	-46.0281	
722	154	2	0.4238	0.47949	5.1608	-46.0281	
723	155	1	-0.8476	4.2704	4.287	-46.0392	
724	155	2	0.4238	5.2704	4.287	-46.0392	
725	155	2	0.4238	3.9371	5.2298	-46.0392	
726	156	1	-0.8476	7.6321	4.2876	-46.0397	
727	156	2	0.4238	8.6321	4.2876	-46.0397	
728	156	2	0.4238	7.2988	5.2304	-46.0397	
729	157	1	-0.8476	11.0598	4.2299	-46.0001	
730	157	2	0.4238	12.0598	4.2299	-46.0001	
731	157	2	0.4238	10.7264	5.1727	-46.0001	
732	158	1	-0.8476	14.4288	4.251	-45.9728	
733	158	2	0.4238	15.4288	4.251	-45.9728	
734	158	2	0.4238	14.0955	5.1938	-45.9728	
735	159	1	-0.8476	17.8247	4.2995	-45.9819	
736	159	2	0.4238	18.8247	4.2995	-45.9819	
737	159	2	0.4238	17.4914	5.2423	-45.9819	
738	160	1	-0.8476	21.2538	4.2387	-45.9702	
739	160	2	0.4238	22.2538	4.2387	-45.9702	
740	160	2	0.4238	20.9205	5.1815	-45.9702	
741	161	1	-0.8476	24.6839	4.2905	-46.0448	
742	161	2	0.4238	25.6839	4.2905	-46.0448	
743	161	2	0.4238	24.3506	5.2333	-46.0448	
744	162	1	-0.8476	-26.3697	7.6776	-46.0035	
745	162	2	0.4238	-25.3697	7.6776	-46.0035	
746	162	2	0.4238	-26.703	8.6204	-46.0035	
747	163	1	-0.8476	-22.9749	7.6671	-46.0007	
748	163	2	0.4238	-21.9749	7.6671	-46.0007	
749	163	2	0.4238	-23.3082	8.6099	-46.0007	
750	164	1	-0.8476	-19.583	7.6425	-45.9613	
751	164	2	0.4238	-18.583	7.6425	-45.9613	
752	164	2	0.4238	-19.9163	8.5853	-45.9613	
753	165	1	-0.8476	-16.1591	7.6188	-45.9827	
754	165	2	0.4238	-15.1591	7.6188	-45.9827	
755	165	2	0.4238	-16.4924	8.5616	-45.9827	
756	166	1	-0.8476	-12.7366	7.6301	-45.9615	
757	166	2	0.4238	-11.7366	7.6301	-45.9615	
758	166	2	0.4238	-13.0699	8.5729	-45.9615	
759	167	1	-0.8476	-9.356	7.6994	-46.0197	
760	167	2	0.4238	-8.356	7.6994	-46.0197	
761	167	2	0.4238	-9.6893	8.6422	-46.0197	