# System

13763 atoms
9330 bonds
5113 angles
1193 dihedrals
147 impropers

15 atom types
8 bond types
14 angle types
15 dihedral types
1 improper types
extra bond per atom 2
extra angle per atom 1
extra special per atom 2
-27.2         27.2 xlo xhi
-27.2         27.2 ylo yhi
-50  50 zlo zhi

Atoms

1	1	3	-0.115	0	-9.1962	-33.802	
2	1	3	-0.115	0	-9.9036	-32.5767	
3	1	3	0	0	-9.1962	-31.3515	
4	1	3	-0.115	0	-9.9036	-30.1262	
5	1	3	0	0	-9.1962	-28.901	
6	1	3	-0.115	0	-9.9036	-27.6757	
7	1	3	0	0	-9.1962	-26.4505	
8	1	3	-0.115	0	-9.9036	-25.2252	
9	1	3	0	0	-9.1962	-24	
10	1	13	0.15	0	-9.9036	-22.7747	
11	1	3	0	0	-9.1962	-21.5495	
12	1	3	-0.115	0	-9.9036	-20.3242	
13	1	3	0	0	-9.1962	-19.099	
14	1	13	0.15	0	-9.9036	-17.8737	
15	1	3	0	0	-9.1962	-16.6485	
16	1	3	-0.115	0	-9.9036	-15.4232	
17	1	3	-0.115	0	-9.1962	-14.198	
18	1	13	0.15	0	-7.7814	-33.802	
19	1	3	0	0	-7.074	-32.5767	
20	1	3	0	0	-7.7814	-31.3515	
21	1	3	0	0	-7.074	-30.1262	
22	1	3	0	0	-7.7814	-28.901	
23	1	3	0	0	-7.074	-27.6757	
24	1	3	0	0	-7.7814	-26.4505	
25	1	3	0	0	-7.074	-25.2252	
26	1	5	0.265	0	-7.7814	-24	
27	1	5	0.265	0	-7.074	-22.7747	
28	1	3	0	0	-7.7814	-21.5495	
29	1	3	0	0	-7.074	-20.3242	
30	1	3	0	0	-7.7814	-19.099	
31	1	3	0	0	-7.074	-17.8737	
32	1	3	0	0	-7.7814	-16.6485	
33	1	3	0	0	-7.074	-15.4232	
34	1	3	-0.115	0	-7.7814	-14.198	
35	1	13	0.15	0	-4.9518	-33.802	
36	1	5	0.265	0	-5.6592	-32.5767	
37	1	5	0.265	0	-4.9518	-31.3515	
38	1	5	0.265	0	-5.6592	-30.1262	
39	1	5	0.265	0	-4.9518	-28.901	
40	1	3	0	0	-5.6592	-27.6757	
41	1	5	0.265	0	-4.9518	-26.4505	
42	1	3	0	0	-5.6592	-25.2252	
43	1	5	0.265	0	-4.9518	-24	
44	1	5	0.265	0	-5.6592	-22.7747	
45	1	3	0	0	-4.9518	-21.5495	
46	1	3	0	0	-5.6592	-20.3242	
47	1	3	0	0	-4.9518	-19.099	
48	1	3	0	0	-5.6592	-17.8737	
49	1	3	0	0	-4.9518	-16.6485	
50	1	3	0	0	-5.6592	-15.4232	
51	1	13	0.15	0	-4.9518	-14.198	
52	1	3	-0.115	0	-3.537	-33.802	
53	1	3	0	0	-2.8296	-32.5767	
54	1	3	0	0	-3.537	-31.3515	
55	1	3	0	0	-2.8296	-30.1262	
56	1	5	0.265	0	-3.537	-28.901	
57	1	5	0.265	0	-2.8296	-27.6757	
58	1	5	0.265	0	-3.537	-26.4505	
59	1	5	0.265	0	-2.8296	-25.2252	
60	1	3	0	0	-3.537	-24	
61	1	3	0	0	-2.8296	-22.7747	
62	1	3	0	0	-3.537	-21.5495	
63	1	3	0	0	-2.8296	-20.3242	
64	1	3	0	0	-3.537	-19.099	
65	1	3	0	0	-2.8296	-17.8737	
66	1	3	0	0	-3.537	-16.6485	
67	1	3	0	0	-2.8296	-15.4232	
68	1	3	-0.115	0	-3.537	-14.198	
69	1	3	-0.115	0	-0.7074	-33.802	
70	1	3	0	0	-1.4148	-32.5767	
71	1	3	0	0	-0.7074	-31.3515	
72	1	5	0.265	0	-1.4148	-30.1262	
73	1	5	0.265	0	-0.7074	-28.901	
74	1	3	0	0	-1.4148	-27.6757	
75	1	5	0.265	0	-0.7074	-26.4505	
76	1	3	0	0	-1.4148	-25.2252	
77	1	3	0	0	-0.7074	-24	
78	1	3	0	0	-1.4148	-22.7747	
79	1	3	0	0	-0.7074	-21.5495	
80	1	3	0	0	-1.4148	-20.3242	
81	1	3	0	0	-0.7074	-19.099	
82	1	3	0	0	-1.4148	-17.8737	
83	1	3	0	0	-0.7074	-16.6485	
84	1	3	0	0	-1.4148	-15.4232	
85	1	13	0.15	0	-0.7074	-14.198	
86	1	3	-0.115	0	0.7074	-33.802	
87	1	3	0	0	1.4148	-32.5767	
88	1	5	0.265	0	0.7074	-31.3515	
89	1	5	0.265	0	1.4148	-30.1262	
90	1	3	0	0	0.7074	-28.901	
91	1	3	0	0	1.4148	-27.6757	
92	1	5	0.265	0	0.7074	-26.4505	
93	1	3	0	0	1.4148	-25.2252	
94	1	3	0	0	0.7074	-24	
95	1	3	0	0	1.4148	-22.7747	
96	1	3	0	0	0.7074	-21.5495	
97	1	3	0	0	1.4148	-20.3242	
98	1	3	0	0	0.7074	-19.099	
99	1	3	0	0	1.4148	-17.8737	
100	1	3	0	0	0.7074	-16.6485	
101	1	3	0	0	1.4148	-15.4232	
102	1	3	-0.115	0	0.7074	-14.198	
103	1	13	0.15	0	3.537	-33.802	
104	1	3	0	0	2.8296	-32.5767	
105	1	3	0	0	3.537	-31.3515	
106	1	3	0	0	2.8296	-30.1262	
107	1	5	0.265	0	3.537	-28.901	
108	1	5	0.265	0	2.8296	-27.6757	
109	1	3	0	0	3.537	-26.4505	
110	1	3	0	0	2.8296	-25.2252	
111	1	3	0	0	3.537	-24	
112	1	3	0	0	2.8296	-22.7747	
113	1	3	0	0	3.537	-21.5495	
114	1	3	0	0	2.8296	-20.3242	
115	1	3	0	0	3.537	-19.099	
116	1	3	0	0	2.8296	-17.8737	
117	1	3	0	0	3.537	-16.6485	
118	1	3	0	0	2.8296	-15.4232	
119	1	3	-0.115	0	3.537	-14.198	
120	1	13	0.15	0	4.9518	-33.802	
121	1	3	0	0	5.6592	-32.5767	
122	1	3	0	0	4.9518	-31.3515	
123	1	3	0	0	5.6592	-30.1262	
124	1	3	0	0	4.9518	-28.901	
125	1	5	0.265	0	5.6592	-27.6757	
126	1	5	0.265	0	4.9518	-26.4505	
127	1	3	0	0	5.6592	-25.2252	
128	1	3	0	0	4.9518	-24	
129	1	3	0	0	5.6592	-22.7747	
130	1	3	0	0	4.9518	-21.5495	
131	1	3	0	0	5.6592	-20.3242	
132	1	3	0	0	4.9518	-19.099	
133	1	3	0	0	5.6592	-17.8737	
134	1	3	0	0	4.9518	-16.6485	
135	1	3	0	0	5.6592	-15.4232	
136	1	3	-0.115	0	4.9518	-14.198	
137	1	3	-0.115	0	7.7814	-33.802	
138	1	3	0	0	7.074	-32.5767	
139	1	3	0	0	7.7814	-31.3515	
140	1	3	0	0	7.074	-30.1262	
141	1	3	0	0	7.7814	-28.901	
142	1	3	0	0	7.074	-27.6757	
143	1	3	0	0	7.7814	-26.4505	
144	1	3	0	0	7.074	-25.2252	
145	1	3	0	0	7.7814	-24	
146	1	3	0	0	7.074	-22.7747	
147	1	3	0	0	7.7814	-21.5495	
148	1	3	0	0	7.074	-20.3242	
149	1	3	0	0	7.7814	-19.099	
150	1	3	0	0	7.074	-17.8737	
151	1	3	0	0	7.7814	-16.6485	
152	1	3	0	0	7.074	-15.4232	
153	1	3	-0.115	0	7.7814	-14.198	
154	1	3	-0.115	0	9.1962	-33.802	
155	1	3	-0.115	0	9.9036	-32.5767	
156	1	3	0	0	9.1962	-31.3515	
157	1	3	-0.115	0	9.9036	-30.1262	
158	1	3	0	0	9.1962	-28.901	
159	1	3	-0.115	0	9.9036	-27.6757	
160	1	3	0	0	9.1962	-26.4505	
161	1	3	-0.115	0	9.9036	-25.2252	
162	1	3	0	0	9.1962	-24	
163	1	3	-0.115	0	9.9036	-22.7747	
164	1	3	0	0	9.1962	-21.5495	
165	1	13	0.15	0	9.9036	-20.3242	
166	1	3	0	0	9.1962	-19.099	
167	1	13	0.15	0	9.9036	-17.8737	
168	1	3	0	0	9.1962	-16.6485	
169	1	3	-0.115	0	9.9036	-15.4232	
170	1	13	0.15	0	9.1962	-14.198	
171	1	4	0.115	0	-10.9806	-32.5767	
172	1	4	0.115	0	-10.9806	-30.1262	
173	1	4	0.115	0	-10.9806	-27.6757	
174	1	4	0.115	0	-10.9806	-25.2252	
175	1	9	-0.585	0	-11.3036	-22.7747	
176	1	4	0.115	0	-10.9806	-20.3242	
177	1	9	-0.585	0	-11.3036	-17.8737	
178	1	4	0.115	0	-10.9806	-15.4232	
179	1	4	0.115	0	10.9806	-32.5767	
180	1	4	0.115	0	10.9806	-30.1262	
181	1	4	0.115	0	10.9806	-27.6757	
182	1	4	0.115	0	10.9806	-25.2252	
183	1	4	0.115	0	10.9806	-22.7747	
184	1	9	-0.585	0	11.3036	-20.3242	
185	1	9	-0.585	0	11.3036	-17.8737	
186	1	4	0.115	0	10.9806	-15.4232	
187	1	4	0.115	0	-9.7347	-34.7347	
188	1	9	-0.585	0	-7.0814	-35.0144	
189	1	4	0.115	0	-9.7347	-13.2652	
190	1	4	0.115	0	-7.2429	-13.2652	
191	1	9	-0.585	0	-5.6518	-35.0144	
192	1	4	0.115	0	-2.9985	-34.7347	
193	1	9	-0.585	0	-5.6518	-12.9855	
194	1	4	0.115	0	-2.9985	-13.2652	
195	1	4	0.115	0	-1.2459	-34.7347	
196	1	4	0.115	0	1.2459	-34.7347	
197	1	9	-0.585	0	-1.4074	-12.9855	
198	1	4	0.115	0	1.2459	-13.2652	
199	1	9	-0.585	0	2.837	-35.0144	
200	1	9	-0.585	0	5.6518	-35.0144	
201	1	4	0.115	0	2.9985	-13.2652	
202	1	4	0.115	0	5.4903	-13.2652	
203	1	4	0.115	0	7.2429	-34.7347	
204	1	4	0.115	0	9.7347	-34.7347	
205	1	4	0.115	0	7.2429	-13.2652	
206	1	9	-0.585	0	9.8962	-12.9855	
207	1	7	0.435	-0.7	-12.0036	-22.7747	
208	1	7	0.435	-0.7	-12.0036	-17.8737	
209	1	7	0.435	-0.7	12.0036	-20.3242	
210	1	7	0.435	0.7	12.0036	-17.8737	
211	1	7	0.435	-0.7	-6.7314	-35.6207	
212	1	7	0.435	-0.7	-6.0018	-35.6207	
213	1	7	0.435	-0.7	-6.0018	-12.3793	
214	1	7	0.435	-0.7	-1.7574	-12.3793	
215	1	7	0.435	0.7	2.487	-35.6207	
216	1	7	0.435	0.7	6.0018	-35.6207	
217	1	7	0.435	0.7	10.2462	-12.3793	
218	1	6	-0.683	1.4	-4.9518	-31.3515	
219	1	7	0.418	2.4	-4.9518	-31.3515	
220	1	6	-0.683	-1.4	-5.6592	-32.5767	
221	1	7	0.418	-2.4	-5.6592	-32.5767	
222	1	6	-0.683	1.4	-5.6592	-30.1262	
223	1	7	0.418	2.4	-5.6592	-30.1262	
224	1	6	-0.683	-1.4	-1.4148	-30.1262	
225	1	7	0.418	-2.4	-1.4148	-30.1262	
226	1	6	-0.683	-1.4	-4.9518	-28.901	
227	1	7	0.418	-2.4	-4.9518	-28.901	
228	1	6	-0.683	1.4	-2.8296	-27.6757	
229	1	7	0.418	2.4	-2.8296	-27.6757	
230	1	6	-0.683	1.4	0.7074	-31.3515	
231	1	7	0.418	2.4	0.7074	-31.3515	
232	1	6	-0.683	-1.4	-0.7074	-28.901	
233	1	7	0.418	-2.4	-0.7074	-28.901	
234	1	6	-0.683	1.4	0.7074	-26.4505	
235	1	7	0.418	2.4	0.7074	-26.4505	
236	1	6	-0.683	-1.4	1.4148	-30.1262	
237	1	7	0.418	-2.4	1.4148	-30.1262	
238	1	6	-0.683	1.4	-0.7074	-26.4505	
239	1	7	0.418	2.4	-0.7074	-26.4505	
240	1	6	-0.683	-1.4	-3.537	-26.4505	
241	1	7	0.418	-2.4	-3.537	-26.4505	
242	1	6	-0.683	1.4	-4.9518	-26.4505	
243	1	7	0.418	2.4	-4.9518	-26.4505	
244	1	6	-0.683	-1.4	-4.9518	-24	
245	1	7	0.418	-2.4	-4.9518	-24	
246	1	6	-0.683	-1.4	-3.537	-28.901	
247	1	7	0.418	-2.4	-3.537	-28.901	
248	1	6	-0.683	-1.4	2.8296	-27.6757	
249	1	7	0.418	-2.4	2.8296	-27.6757	
250	1	6	-0.683	1.4	-7.7814	-24	
251	1	7	0.418	2.4	-7.7814	-24	
252	1	6	-0.683	1.4	3.537	-28.901	
253	1	7	0.418	2.4	3.537	-28.901	
254	1	6	-0.683	1.4	4.9518	-26.4505	
255	1	7	0.418	2.4	4.9518	-26.4505	
256	1	6	-0.683	-1.4	-7.074	-22.7747	
257	1	7	0.418	-2.4	-7.074	-22.7747	
258	1	6	-0.683	1.4	5.6592	-27.6757	
259	1	7	0.418	2.4	5.6592	-27.6757	
260	1	6	-0.683	1.4	-5.6592	-22.7747	
261	1	7	0.418	2.4	-5.6592	-22.7747	
262	1	6	-0.683	-1.4	-2.8296	-25.2252	
263	1	7	0.418	-2.4	-2.8296	-25.2252	
264	2	1	-0.8476	-26.3526	-26.3699	-45.9877	
265	2	2	0.4238	-25.3526	-26.3699	-45.9877	
266	2	2	0.4238	-26.6859	-25.4271	-45.9877	
267	3	1	-0.8476	-22.9109	-26.3126	-45.9669	
268	3	2	0.4238	-21.9109	-26.3126	-45.9669	
269	3	2	0.4238	-23.2442	-25.3698	-45.9669	
270	4	1	-0.8476	-19.5214	-26.3469	-46.049	
271	4	2	0.4238	-18.5214	-26.3469	-46.049	
272	4	2	0.4238	-19.8547	-25.4041	-46.049	
273	5	1	-0.8476	-16.1605	-26.312	-46.0482	
274	5	2	0.4238	-15.1605	-26.312	-46.0482	
275	5	2	0.4238	-16.4938	-25.3692	-46.0482	
276	6	1	-0.8476	-12.7888	-26.3809	-45.9859	
277	6	2	0.4238	-11.7888	-26.3809	-45.9859	
278	6	2	0.4238	-13.1221	-25.4381	-45.9859	
279	7	1	-0.8476	-9.3522	-26.3775	-45.9973	
280	7	2	0.4238	-8.3522	-26.3775	-45.9973	
281	7	2	0.4238	-9.6856	-25.4347	-45.9973	
282	8	1	-0.8476	-5.9319	-26.3256	-45.9682	
283	8	2	0.4238	-4.9319	-26.3256	-45.9682	
284	8	2	0.4238	-6.2652	-25.3828	-45.9682	
285	9	1	-0.8476	-2.508	-26.3142	-45.9975	
286	9	2	0.4238	-1.508	-26.3142	-45.9975	
287	9	2	0.4238	-2.8413	-25.3714	-45.9975	
288	10	1	-0.8476	0.81758	-26.3454	-45.9606	
289	10	2	0.4238	1.8176	-26.3454	-45.9606	
290	10	2	0.4238	0.48427	-25.4026	-45.9606	
291	11	1	-0.8476	4.255	-26.3684	-45.9933	
292	11	2	0.4238	5.255	-26.3684	-45.9933	
293	11	2	0.4238	3.9217	-25.4256	-45.9933	
294	12	1	-0.8476	7.6493	-26.3774	-45.9503	
295	12	2	0.4238	8.6493	-26.3774	-45.9503	
296	12	2	0.4238	7.316	-25.4346	-45.9503	
297	13	1	-0.8476	11.0992	-26.3169	-45.9728	
298	13	2	0.4238	12.0992	-26.3169	-45.9728	
299	13	2	0.4238	10.7659	-25.3741	-45.9728	
300	14	1	-0.8476	14.4807	-26.3363	-46.0359	
301	14	2	0.4238	15.4807	-26.3363	-46.0359	
302	14	2	0.4238	14.1474	-25.3935	-46.0359	
303	15	1	-0.8476	17.8911	-26.373	-45.9508	
304	15	2	0.4238	18.8911	-26.373	-45.9508	
305	15	2	0.4238	17.5578	-25.4302	-45.9508	
306	16	1	-0.8476	21.2459	-26.3364	-45.984	
307	16	2	0.4238	22.2459	-26.3364	-45.984	
308	16	2	0.4238	20.9126	-25.3936	-45.984	
309	17	1	-0.8476	24.6054	-26.3957	-46.0223	
310	17	2	0.4238	25.6054	-26.3957	-46.0223	
311	17	2	0.4238	24.2721	-25.4529	-46.0223	
312	18	1	-0.8476	-26.3926	-22.9368	-46.0153	
313	18	2	0.4238	-25.3926	-22.9368	-46.0153	
314	18	2	0.4238	-26.7259	-21.994	-46.0153	
315	19	1	-0.8476	-22.9436	-22.9997	-46.0425	
316	19	2	0.4238	-21.9436	-22.9997	-46.0425	
317	19	2	0.4238	-23.2769	-22.0569	-46.0425	
318	20	1	-0.8476	-19.5249	-22.995	-45.9985	
319	20	2	0.4238	-18.5249	-22.995	-45.9985	
320	20	2	0.4238	-19.8582	-22.0522	-45.9985	
321	21	1	-0.8476	-16.1825	-22.9237	-45.9904	
322	21	2	0.4238	-15.1825	-22.9237	-45.9904	
323	21	2	0.4238	-16.5158	-21.9809	-45.9904	
324	22	1	-0.8476	-12.7104	-22.9179	-45.9831	
325	22	2	0.4238	-11.7104	-22.9179	-45.9831	
326	22	2	0.4238	-13.0437	-21.9751	-45.9831	
327	23	1	-0.8476	-9.3379	-22.9011	-45.9921	
328	23	2	0.4238	-8.3379	-22.9011	-45.9921	
329	23	2	0.4238	-9.6712	-21.9583	-45.9921	
330	24	1	-0.8476	-5.951	-22.9338	-45.9691	
331	24	2	0.4238	-4.951	-22.9338	-45.9691	
332	24	2	0.4238	-6.2843	-21.991	-45.9691	
333	25	1	-0.8476	-2.5853	-22.9894	-45.9519	
334	25	2	0.4238	-1.5853	-22.9894	-45.9519	
335	25	2	0.4238	-2.9186	-22.0466	-45.9519	
336	26	1	-0.8476	0.8826	-22.9277	-46.0319	
337	26	2	0.4238	1.8826	-22.9277	-46.0319	
338	26	2	0.4238	0.54929	-21.9849	-46.0319	
339	27	1	-0.8476	4.2071	-22.9915	-45.9709	
340	27	2	0.4238	5.2071	-22.9915	-45.9709	
341	27	2	0.4238	3.8738	-22.0487	-45.9709	
342	28	1	-0.8476	7.6308	-22.9337	-45.9705	
343	28	2	0.4238	8.6308	-22.9337	-45.9705	
344	28	2	0.4238	7.2975	-21.9909	-45.9705	
345	29	1	-0.8476	11.0617	-22.9438	-45.9665	
346	29	2	0.4238	12.0617	-22.9438	-45.9665	
347	29	2	0.4238	10.7284	-22.001	-45.9665	
348	30	1	-0.8476	14.4455	-22.982	-46.049	
349	30	2	0.4238	15.4455	-22.982	-46.049	
350	30	2	0.4238	14.1122	-22.0392	-46.049	
351	31	1	-0.8476	17.8909	-22.934	-46.0127	
352	31	2	0.4238	18.8909	-22.934	-46.0127	
353	31	2	0.4238	17.5576	-21.9912	-46.0127	
354	32	1	-0.8476	21.2619	-22.9837	-46.0359	
355	32	2	0.4238	22.2619	-22.9837	-46.0359	
356	32	2	0.4238	20.9286	-22.0409	-46.0359	
357	33	1	-0.8476	24.6132	-22.9041	-45.9889	
358	33	2	0.4238	25.6132	-22.9041	-45.9889	
359	33	2	0.4238	24.2799	-21.9613	-45.9889	
360	34	1	-0.8476	-26.368	-19.5714	-46.0399	
361	34	2	0.4238	-25.368	-19.5714	-46.0399	
362	34	2	0.4238	-26.7013	-18.6286	-46.0399	
363	35	1	-0.8476	-22.9296	-19.5135	-46.049	
364	35	2	0.4238	-21.9296	-19.5135	-46.049	
365	35	2	0.4238	-23.2629	-18.5707	-46.049	
366	36	1	-0.8476	-19.5324	-19.5829	-45.9931	
367	36	2	0.4238	-18.5324	-19.5829	-45.9931	
368	36	2	0.4238	-19.8657	-18.6401	-45.9931	
369	37	1	-0.8476	-16.1242	-19.584	-46.0001	
370	37	2	0.4238	-15.1242	-19.584	-46.0001	
371	37	2	0.4238	-16.4576	-18.6412	-46.0001	
372	38	1	-0.8476	-12.7931	-19.5876	-45.9841	
373	38	2	0.4238	-11.7931	-19.5876	-45.9841	
374	38	2	0.4238	-13.1264	-18.6448	-45.9841	
375	39	1	-0.8476	-9.3515	-19.5503	-46.0141	
376	39	2	0.4238	-8.3515	-19.5503	-46.0141	
377	39	2	0.4238	-9.6848	-18.6075	-46.0141	
378	40	1	-0.8476	-5.9851	-19.5299	-46.0487	
379	40	2	0.4238	-4.9851	-19.5299	-46.0487	
380	40	2	0.4238	-6.3184	-18.5871	-46.0487	
381	41	1	-0.8476	-2.583	-19.5834	-45.9574	
382	41	2	0.4238	-1.583	-19.5834	-45.9574	
383	41	2	0.4238	-2.9163	-18.6406	-45.9574	
384	42	1	-0.8476	0.87083	-19.584	-46.0179	
385	42	2	0.4238	1.8708	-19.584	-46.0179	
386	42	2	0.4238	0.53752	-18.6412	-46.0179	
387	43	1	-0.8476	4.2691	-19.5548	-46.0475	
388	43	2	0.4238	5.2691	-19.5548	-46.0475	
389	43	2	0.4238	3.9358	-18.612	-46.0475	
390	44	1	-0.8476	7.6339	-19.5217	-46.0086	
391	44	2	0.4238	8.6339	-19.5217	-46.0086	
392	44	2	0.4238	7.3006	-18.5789	-46.0086	
393	45	1	-0.8476	11.0744	-19.5573	-45.9815	
394	45	2	0.4238	12.0744	-19.5573	-45.9815	
395	45	2	0.4238	10.741	-18.6145	-45.9815	
396	46	1	-0.8476	14.4905	-19.5223	-46.0038	
397	46	2	0.4238	15.4905	-19.5223	-46.0038	
398	46	2	0.4238	14.1572	-18.5795	-46.0038	
399	47	1	-0.8476	17.8439	-19.5995	-45.9642	
400	47	2	0.4238	18.8439	-19.5995	-45.9642	
401	47	2	0.4238	17.5106	-18.6567	-45.9642	
402	48	1	-0.8476	21.2431	-19.5288	-46.014	
403	48	2	0.4238	22.2431	-19.5288	-46.014	
404	48	2	0.4238	20.9098	-18.586	-46.014	
405	49	1	-0.8476	24.6781	-19.5395	-45.9958	
406	49	2	0.4238	25.6781	-19.5395	-45.9958	
407	49	2	0.4238	24.3448	-18.5967	-45.9958	
408	50	1	-0.8476	-26.3383	-16.1862	-45.9818	
409	50	2	0.4238	-25.3383	-16.1862	-45.9818	
410	50	2	0.4238	-26.6716	-15.2434	-45.9818	
411	51	1	-0.8476	-22.9517	-16.1266	-46.0124	
412	51	2	0.4238	-21.9517	-16.1266	-46.0124	
413	51	2	0.4238	-23.285	-15.1838	-46.0124	
414	52	1	-0.8476	-19.5504	-16.1276	-45.9512	
415	52	2	0.4238	-18.5504	-16.1276	-45.9512	
416	52	2	0.4238	-19.8837	-15.1848	-45.9512	
417	53	1	-0.8476	-16.1168	-16.1004	-45.9528	
418	53	2	0.4238	-15.1168	-16.1004	-45.9528	
419	53	2	0.4238	-16.4501	-15.1576	-45.9528	
420	54	1	-0.8476	-12.739	-16.175	-45.9541	
421	54	2	0.4238	-11.739	-16.175	-45.9541	
422	54	2	0.4238	-13.0724	-15.2322	-45.9541	
423	55	1	-0.8476	-9.3045	-16.1338	-46.0091	
424	55	2	0.4238	-8.3045	-16.1338	-46.0091	
425	55	2	0.4238	-9.6378	-15.191	-46.0091	
426	56	1	-0.8476	-5.9906	-16.1895	-45.9539	
427	56	2	0.4238	-4.9906	-16.1895	-45.9539	
428	56	2	0.4238	-6.3239	-15.2467	-45.9539	
429	57	1	-0.8476	-2.5073	-16.115	-46.0485	
430	57	2	0.4238	-1.5073	-16.115	-46.0485	
431	57	2	0.4238	-2.8406	-15.1722	-46.0485	
432	58	1	-0.8476	0.8485	-16.1437	-45.9789	
433	58	2	0.4238	1.8485	-16.1437	-45.9789	
434	58	2	0.4238	0.51519	-15.2009	-45.9789	
435	59	1	-0.8476	4.2312	-16.1357	-46.0078	
436	59	2	0.4238	5.2312	-16.1357	-46.0078	
437	59	2	0.4238	3.8979	-15.1929	-46.0078	
438	60	1	-0.8476	7.6632	-16.1758	-45.9737	
439	60	2	0.4238	8.6632	-16.1758	-45.9737	
440	60	2	0.4238	7.3299	-15.233	-45.9737	
441	61	1	-0.8476	11.048	-16.1658	-46.0368	
442	61	2	0.4238	12.048	-16.1658	-46.0368	
443	61	2	0.4238	10.7147	-15.223	-46.0368	
444	62	1	-0.8476	14.4632	-16.1542	-46.0466	
445	62	2	0.4238	15.4632	-16.1542	-46.0466	
446	62	2	0.4238	14.1299	-15.2114	-46.0466	
447	63	1	-0.8476	17.8512	-16.1997	-46.0483	
448	63	2	0.4238	18.8512	-16.1997	-46.0483	
449	63	2	0.4238	17.5179	-15.2569	-46.0483	
450	64	1	-0.8476	21.2594	-16.1289	-46.0267	
451	64	2	0.4238	22.2594	-16.1289	-46.0267	
452	64	2	0.4238	20.926	-15.1861	-46.0267	
453	65	1	-0.8476	24.6769	-16.1758	-45.9832	
454	65	2	0.4238	25.6769	-16.1758	-45.9832	
455	65	2	0.4238	24.3436	-15.233	-45.9832	
456	66	1	-0.8476	-26.3856	-12.7473	-46.029	
457	66	2	0.4238	-25.3856	-12.7473	-46.029	
458	66	2	0.4238	-26.7189	-11.8045	-46.029	
459	67	1	-0.8476	-22.9493	-12.7497	-45.9971	
460	67	2	0.4238	-21.9493	-12.7497	-45.9971	
461	67	2	0.4238	-23.2826	-11.8069	-45.9971	
462	68	1	-0.8476	-19.5186	-12.7222	-45.9896	
463	68	2	0.4238	-18.5186	-12.7222	-45.9896	
464	68	2	0.4238	-19.8519	-11.7794	-45.9896	
465	69	1	-0.8476	-16.1068	-12.7345	-46.0411	
466	69	2	0.4238	-15.1068	-12.7345	-46.0411	
467	69	2	0.4238	-16.4401	-11.7917	-46.0411	
468	70	1	-0.8476	-12.7927	-12.7207	-46.0076	
469	70	2	0.4238	-11.7927	-12.7207	-46.0076	
470	70	2	0.4238	-13.126	-11.7779	-46.0076	
471	71	1	-0.8476	-9.3764	-12.7247	-45.9936	
472	71	2	0.4238	-8.3764	-12.7247	-45.9936	
473	71	2	0.4238	-9.7097	-11.7819	-45.9936	
474	72	1	-0.8476	-5.9339	-12.7856	-45.9879	
475	72	2	0.4238	-4.9339	-12.7856	-45.9879	
476	72	2	0.4238	-6.2672	-11.8428	-45.9879	
477	73	1	-0.8476	-2.5456	-12.7066	-46.05	
478	73	2	0.4238	-1.5456	-12.7066	-46.05	
479	73	2	0.4238	-2.8789	-11.7638	-46.05	
480	74	1	-0.8476	0.80836	-12.735	-46.0042	
481	74	2	0.4238	1.8084	-12.735	-46.0042	
482	74	2	0.4238	0.47505	-11.7922	-46.0042	
483	75	1	-0.8476	4.2351	-12.7505	-46.0257	
484	75	2	0.4238	5.2351	-12.7505	-46.0257	
485	75	2	0.4238	3.9018	-11.8077	-46.0257	
486	76	1	-0.8476	7.6305	-12.7919	-45.9598	
487	76	2	0.4238	8.6305	-12.7919	-45.9598	
488	76	2	0.4238	7.2972	-11.8491	-45.9598	
489	77	1	-0.8476	11.0568	-12.7869	-46.0002	
490	77	2	0.4238	12.0568	-12.7869	-46.0002	
491	77	2	0.4238	10.7235	-11.8441	-46.0002	
492	78	1	-0.8476	14.4486	-12.7572	-46.0103	
493	78	2	0.4238	15.4486	-12.7572	-46.0103	
494	78	2	0.4238	14.1153	-11.8144	-46.0103	
495	79	1	-0.8476	17.8448	-12.7246	-46.0053	
496	79	2	0.4238	18.8448	-12.7246	-46.0053	
497	79	2	0.4238	17.5115	-11.7818	-46.0053	
498	80	1	-0.8476	21.2002	-12.775	-46.0012	
499	80	2	0.4238	22.2002	-12.775	-46.0012	
500	80	2	0.4238	20.8669	-11.8322	-46.0012	
501	81	1	-0.8476	24.6624	-12.7721	-46.0171	
502	81	2	0.4238	25.6624	-12.7721	-46.0171	
503	81	2	0.4238	24.3291	-11.8293	-46.0171	
504	82	1	-0.8476	-26.3887	-9.3231	-46.0029	
505	82	2	0.4238	-25.3887	-9.3231	-46.0029	
506	82	2	0.4238	-26.722	-8.3803	-46.0029	
507	83	1	-0.8476	-22.9396	-9.3448	-45.981	
508	83	2	0.4238	-21.9396	-9.3448	-45.981	
509	83	2	0.4238	-23.2729	-8.402	-45.981	
510	84	1	-0.8476	-19.5481	-9.3855	-46.0124	
511	84	2	0.4238	-18.5481	-9.3855	-46.0124	
512	84	2	0.4238	-19.8814	-8.4427	-46.0124	
513	85	1	-0.8476	-16.1796	-9.3969	-46.0275	
514	85	2	0.4238	-15.1796	-9.3969	-46.0275	
515	85	2	0.4238	-16.5129	-8.4541	-46.0275	
516	86	1	-0.8476	-12.7755	-9.3821	-45.9674	
517	86	2	0.4238	-11.7755	-9.3821	-45.9674	
518	86	2	0.4238	-13.1088	-8.4393	-45.9674	
519	87	1	-0.8476	-9.3398	-9.3293	-45.9969	
520	87	2	0.4238	-8.3398	-9.3293	-45.9969	
521	87	2	0.4238	-9.6731	-8.3865	-45.9969	
522	88	1	-0.8476	-5.9622	-9.3508	-46.0168	
523	88	2	0.4238	-4.9622	-9.3508	-46.0168	
524	88	2	0.4238	-6.2955	-8.408	-46.0168	
525	89	1	-0.8476	-2.5359	-9.3073	-45.986	
526	89	2	0.4238	-1.5359	-9.3073	-45.986	
527	89	2	0.4238	-2.8692	-8.3645	-45.986	
528	90	1	-0.8476	0.86229	-9.3268	-45.9916	
529	90	2	0.4238	1.8623	-9.3268	-45.9916	
530	90	2	0.4238	0.52898	-8.384	-45.9916	
531	91	1	-0.8476	4.2887	-9.3353	-46.0238	
532	91	2	0.4238	5.2887	-9.3353	-46.0238	
533	91	2	0.4238	3.9554	-8.3925	-46.0238	
534	92	1	-0.8476	7.6114	-9.3079	-46.0469	
535	92	2	0.4238	8.6114	-9.3079	-46.0469	
536	92	2	0.4238	7.2781	-8.3651	-46.0469	
537	93	1	-0.8476	11.0355	-9.3437	-46.003	
538	93	2	0.4238	12.0355	-9.3437	-46.003	
539	93	2	0.4238	10.7022	-8.4009	-46.003	
540	94	1	-0.8476	14.4523	-9.3542	-45.9773	
541	94	2	0.4238	15.4523	-9.3542	-45.9773	
542	94	2	0.4238	14.119	-8.4114	-45.9773	
543	95	1	-0.8476	17.8671	-9.3006	-45.953	
544	95	2	0.4238	18.8671	-9.3006	-45.953	
545	95	2	0.4238	17.5338	-8.3578	-45.953	
546	96	1	-0.8476	21.2457	-9.3924	-45.9618	
547	96	2	0.4238	22.2457	-9.3924	-45.9618	
548	96	2	0.4238	20.9124	-8.4496	-45.9618	
549	97	1	-0.8476	24.6207	-9.3037	-45.9575	
550	97	2	0.4238	25.6207	-9.3037	-45.9575	
551	97	2	0.4238	24.2874	-8.3609	-45.9575	
552	98	1	-0.8476	-26.3609	-5.9969	-45.9846	
553	98	2	0.4238	-25.3609	-5.9969	-45.9846	
554	98	2	0.4238	-26.6942	-5.0541	-45.9846	
555	99	1	-0.8476	-22.9208	-5.9044	-45.9944	
556	99	2	0.4238	-21.9208	-5.9044	-45.9944	
557	99	2	0.4238	-23.2541	-4.9616	-45.9944	
558	100	1	-0.8476	-19.5345	-5.9777	-45.9999	
559	100	2	0.4238	-18.5345	-5.9777	-45.9999	
560	100	2	0.4238	-19.8678	-5.0349	-45.9999	
561	101	1	-0.8476	-16.1373	-5.9653	-45.9917	
562	101	2	0.4238	-15.1373	-5.9653	-45.9917	
563	101	2	0.4238	-16.4706	-5.0225	-45.9917	
564	102	1	-0.8476	-12.7846	-5.992	-45.9913	
565	102	2	0.4238	-11.7846	-5.992	-45.9913	
566	102	2	0.4238	-13.1179	-5.0492	-45.9913	
567	103	1	-0.8476	-9.3637	-5.9787	-46.043	
568	103	2	0.4238	-8.3637	-5.9787	-46.043	
569	103	2	0.4238	-9.697	-5.0359	-46.043	
570	104	1	-0.8476	-5.9523	-5.9275	-46.0252	
571	104	2	0.4238	-4.9523	-5.9275	-46.0252	
572	104	2	0.4238	-6.2856	-4.9847	-46.0252	
573	105	1	-0.8476	-2.5812	-5.9948	-46.0064	
574	105	2	0.4238	-1.5812	-5.9948	-46.0064	
575	105	2	0.4238	-2.9145	-5.052	-46.0064	
576	106	1	-0.8476	0.823	-5.956	-45.9755	
577	106	2	0.4238	1.823	-5.956	-45.9755	
578	106	2	0.4238	0.48969	-5.0132	-45.9755	
579	107	1	-0.8476	4.2215	-5.9388	-46.0168	
580	107	2	0.4238	5.2215	-5.9388	-46.0168	
581	107	2	0.4238	3.8882	-4.996	-46.0168	
582	108	1	-0.8476	7.6109	-5.9183	-46.0429	
583	108	2	0.4238	8.6109	-5.9183	-46.0429	
584	108	2	0.4238	7.2776	-4.9755	-46.0429	
585	109	1	-0.8476	11.0625	-5.9223	-46.0487	
586	109	2	0.4238	12.0625	-5.9223	-46.0487	
587	109	2	0.4238	10.7292	-4.9795	-46.0487	
588	110	1	-0.8476	14.4251	-5.9023	-45.9827	
589	110	2	0.4238	15.4251	-5.9023	-45.9827	
590	110	2	0.4238	14.0918	-4.9595	-45.9827	
591	111	1	-0.8476	17.8303	-5.9428	-46.0246	
592	111	2	0.4238	18.8303	-5.9428	-46.0246	
593	111	2	0.4238	17.497	-5	-46.0246	
594	112	1	-0.8476	21.2057	-5.981	-46.0109	
595	112	2	0.4238	22.2057	-5.981	-46.0109	
596	112	2	0.4238	20.8724	-5.0382	-46.0109	
597	113	1	-0.8476	24.6922	-5.9794	-46.0441	
598	113	2	0.4238	25.6922	-5.9794	-46.0441	
599	113	2	0.4238	24.3589	-5.0366	-46.0441	
600	114	1	-0.8476	-26.3633	-2.5163	-45.951	
601	114	2	0.4238	-25.3633	-2.5163	-45.951	
602	114	2	0.4238	-26.6966	-1.5735	-45.951	
603	115	1	-0.8476	-22.9799	-2.528	-45.9514	
604	115	2	0.4238	-21.9799	-2.528	-45.9514	
605	115	2	0.4238	-23.3132	-1.5852	-45.9514	
606	116	1	-0.8476	-19.5027	-2.5913	-46.0427	
607	116	2	0.4238	-18.5027	-2.5913	-46.0427	
608	116	2	0.4238	-19.836	-1.6485	-46.0427	
609	117	1	-0.8476	-16.1529	-2.533	-46.0384	
610	117	2	0.4238	-15.1529	-2.533	-46.0384	
611	117	2	0.4238	-16.4862	-1.5902	-46.0384	
612	118	1	-0.8476	-12.7973	-2.5818	-45.9661	
613	118	2	0.4238	-11.7973	-2.5818	-45.9661	
614	118	2	0.4238	-13.1306	-1.639	-45.9661	
615	119	1	-0.8476	-9.3825	-2.5669	-46.0102	
616	119	2	0.4238	-8.3825	-2.5669	-46.0102	
617	119	2	0.4238	-9.7158	-1.6241	-46.0102	
618	120	1	-0.8476	-5.9332	-2.5571	-45.9907	
619	120	2	0.4238	-4.9332	-2.5571	-45.9907	
620	120	2	0.4238	-6.2666	-1.6143	-45.9907	
621	121	1	-0.8476	-2.5805	-2.5626	-46.0107	
622	121	2	0.4238	-1.5805	-2.5626	-46.0107	
623	121	2	0.4238	-2.9139	-1.6198	-46.0107	
624	122	1	-0.8476	0.85103	-2.518	-46.0414	
625	122	2	0.4238	1.851	-2.518	-46.0414	
626	122	2	0.4238	0.51772	-1.5752	-46.0414	
627	123	1	-0.8476	4.2205	-2.5241	-45.9623	
628	123	2	0.4238	5.2205	-2.5241	-45.9623	
629	123	2	0.4238	3.8872	-1.5813	-45.9623	
630	124	1	-0.8476	7.6887	-2.5055	-45.9698	
631	124	2	0.4238	8.6887	-2.5055	-45.9698	
632	124	2	0.4238	7.3554	-1.5627	-45.9698	
633	125	1	-0.8476	11.088	-2.5854	-45.953	
634	125	2	0.4238	12.088	-2.5854	-45.953	
635	125	2	0.4238	10.7547	-1.6426	-45.953	
636	126	1	-0.8476	14.4424	-2.584	-46.0349	
637	126	2	0.4238	15.4424	-2.584	-46.0349	
638	126	2	0.4238	14.1091	-1.6412	-46.0349	
639	127	1	-0.8476	17.8552	-2.5812	-46.0202	
640	127	2	0.4238	18.8552	-2.5812	-46.0202	
641	127	2	0.4238	17.5219	-1.6384	-46.0202	
642	128	1	-0.8476	21.273	-2.5039	-45.9868	
643	128	2	0.4238	22.273	-2.5039	-45.9868	
644	128	2	0.4238	20.9397	-1.5611	-45.9868	
645	129	1	-0.8476	24.6211	-2.5868	-46.0463	
646	129	2	0.4238	25.6211	-2.5868	-46.0463	
647	129	2	0.4238	24.2877	-1.644	-46.0463	
648	130	1	-0.8476	-26.3649	0.81851	-46.0474	
649	130	2	0.4238	-25.3649	0.81851	-46.0474	
650	130	2	0.4238	-26.6982	1.7613	-46.0474	
651	131	1	-0.8476	-22.9336	0.84907	-45.9666	
652	131	2	0.4238	-21.9336	0.84907	-45.9666	
653	131	2	0.4238	-23.2669	1.7919	-45.9666	
654	132	1	-0.8476	-19.5939	0.83381	-46.009	
655	132	2	0.4238	-18.5939	0.83381	-46.009	
656	132	2	0.4238	-19.9272	1.7766	-46.009	
657	133	1	-0.8476	-16.1686	0.85614	-46.0045	
658	133	2	0.4238	-15.1686	0.85614	-46.0045	
659	133	2	0.4238	-16.5019	1.7989	-46.0045	
660	134	1	-0.8476	-12.7247	0.86916	-45.9783	
661	134	2	0.4238	-11.7247	0.86916	-45.9783	
662	134	2	0.4238	-13.058	1.812	-45.9783	
663	135	1	-0.8476	-9.3517	0.84686	-45.9998	
664	135	2	0.4238	-8.3517	0.84686	-45.9998	
665	135	2	0.4238	-9.685	1.7897	-45.9998	
666	136	1	-0.8476	-5.9619	0.89108	-45.9853	
667	136	2	0.4238	-4.9619	0.89108	-45.9853	
668	136	2	0.4238	-6.2952	1.8339	-45.9853	
669	137	1	-0.8476	-2.5152	0.8643	-46.0347	
670	137	2	0.4238	-1.5152	0.8643	-46.0347	
671	137	2	0.4238	-2.8485	1.8071	-46.0347	
672	138	1	-0.8476	0.81157	0.83131	-46.0165	
673	138	2	0.4238	1.8116	0.83131	-46.0165	
674	138	2	0.4238	0.47826	1.7741	-46.0165	
675	139	1	-0.8476	4.2727	0.87509	-46.0048	
676	139	2	0.4238	5.2727	0.87509	-46.0048	
677	139	2	0.4238	3.9393	1.8179	-46.0048	
678	140	1	-0.8476	7.674	0.88187	-45.9539	
679	140	2	0.4238	8.674	0.88187	-45.9539	
680	140	2	0.4238	7.3407	1.8247	-45.9539	
681	141	1	-0.8476	11.0628	0.80484	-46.0392	
682	141	2	0.4238	12.0628	0.80484	-46.0392	
683	141	2	0.4238	10.7295	1.7476	-46.0392	
684	142	1	-0.8476	14.4766	0.83119	-45.9604	
685	142	2	0.4238	15.4766	0.83119	-45.9604	
686	142	2	0.4238	14.1433	1.774	-45.9604	
687	143	1	-0.8476	17.8825	0.81984	-45.9621	
688	143	2	0.4238	18.8825	0.81984	-45.9621	
689	143	2	0.4238	17.5492	1.7626	-45.9621	
690	144	1	-0.8476	21.2247	0.88102	-45.9571	
691	144	2	0.4238	22.2247	0.88102	-45.9571	
692	144	2	0.4238	20.8914	1.8238	-45.9571	
693	145	1	-0.8476	24.617	0.83769	-45.9851	
694	145	2	0.4238	25.617	0.83769	-45.9851	
695	145	2	0.4238	24.2837	1.7805	-45.9851	
696	146	1	-0.8476	-26.3525	4.2108	-45.9808	
697	146	2	0.4238	-25.3525	4.2108	-45.9808	
698	146	2	0.4238	-26.6858	5.1536	-45.9808	
699	147	1	-0.8476	-22.9718	4.2659	-45.9667	
700	147	2	0.4238	-21.9718	4.2659	-45.9667	
701	147	2	0.4238	-23.3051	5.2087	-45.9667	
702	148	1	-0.8476	-19.5389	4.2065	-45.9933	
703	148	2	0.4238	-18.5389	4.2065	-45.9933	
704	148	2	0.4238	-19.8722	5.1493	-45.9933	
705	149	1	-0.8476	-16.1045	4.234	-45.9678	
706	149	2	0.4238	-15.1045	4.234	-45.9678	
707	149	2	0.4238	-16.4378	5.1768	-45.9678	
708	150	1	-0.8476	-12.7923	4.2563	-45.9551	
709	150	2	0.4238	-11.7923	4.2563	-45.9551	
710	150	2	0.4238	-13.1256	5.1991	-45.9551	
711	151	1	-0.8476	-9.35	4.2345	-45.9995	
712	151	2	0.4238	-8.35	4.2345	-45.9995	
713	151	2	0.4238	-9.6833	5.1773	-45.9995	
714	152	1	-0.8476	-5.9469	4.2928	-46.0257	
715	152	2	0.4238	-4.9469	4.2928	-46.0257	
716	152	2	0.4238	-6.2802	5.2356	-46.0257	
717	153	1	-0.8476	-2.5348	4.2584	-46.0256	
718	153	2	0.4238	-1.5348	4.2584	-46.0256	
719	153	2	0.4238	-2.8681	5.2012	-46.0256	
720	154	1	-0.8476	0.81839	4.2049	-45.9972	
721	154	2	0.4238	1.8184	4.2049	-45.9972	
722	154	2	0.4238	0.48508	5.1477	-45.9972	
723	155	1	-0.8476	4.2658	4.233	-46.0332	
724	155	2	0.4238	5.2658	4.233	-46.0332	
725	155	2	0.4238	3.9325	5.1758	-46.0332	
726	156	1	-0.8476	7.6165	4.2046	-46.0271	
727	156	2	0.4238	8.6165	4.2046	-46.0271	
728	156	2	0.4238	7.2832	5.1474	-46.0271	
729	157	1	-0.8476	11.0577	4.2406	-46.0337	
730	157	2	0.4238	12.0577	4.2406	-46.0337	
731	157	2	0.4238	10.7244	5.1834	-46.0337	
732	158	1	-0.8476	14.4369	4.2602	-45.9537	
733	158	2	0.4238	15.4369	4.2602	-45.9537	
734	158	2	0.4238	14.1036	5.203	-45.9537	
735	159	1	-0.8476	17.8991	4.207	-46.0268	
736	159	2	0.4238	18.8991	4.207	-46.0268	
737	159	2	0.4238	17.5658	5.1498	-46.0268	
738	160	1	-0.8476	21.2276	4.281	-45.9524	
739	160	2	0.4238	22.2276	4.281	-45.9524	
740	160	2	0.4238	20.8943	5.2238	-45.9524	
741	161	1	-0.8476	24.6	4.2472	-46.0025	
742	161	2	0.4238	25.6	4.2472	-46.0025	
743	161	2	0.4238	24.2667	5.19	-46.0025	
744	162	1	-0.8476	-26.3871	7.6366	-46.0015	
745	162	2	0.4238	-25.3871	7.6366	-46.0015	
746	162	2	0.4238	-26.7204	8.5794	-46.0015	
747	163	1	-0.8476	-22.9196	7.6683	-46.0479	
748	163	2	0.4238	-21.9196	7.6683	-46.0479	
749	163	2	0.4238	-23.2529	8.6111	-46.0479	
750	164	1	-0.8476	-19.5867	7.6637	-46.0085	
751	164	2	0.4238	-18.5867	7.6637	-46.0085	
752	164	2	0.4238	-19.92	8.6065	-46.0085	
753	165	1	-0.8476	-16.1926	7.6866	-46.0147	
754	165	2	0.4238	-15.1926	7.6866	-46.0147	
755	165	2	0.4238	-16.5259	8.6294	-46.0147	
756	166	1	-0.8476	-12.7134	7.6332	-45.9805	
757	166	2	0.4238	-11.7134	7.6332	-45.9805	
758	166	2	0.4238	-13.0468	8.576	-45.9805	
759	167	1	-0.8476	-9.3355	7.6562	-45.9573	
760	167	2	0.4238	-8.3355	7.6562	-45.9573	
761	167	2	0.4238	-9.6688	8.599	-45.9573	