# System

13763 atoms
9330 bonds
5113 angles
1193 dihedrals
147 impropers

15 atom types
8 bond types
14 angle types
15 dihedral types
1 improper types
extra bond per atom 2
extra angle per atom 1
extra special per atom 2
-27.2         27.2 xlo xhi
-27.2         27.2 ylo yhi
-50  50 zlo zhi

Atoms

1	1	3	-0.115	0	-9.1962	-31.802	
2	1	3	-0.115	0	-9.9036	-30.5767	
3	1	3	0	0	-9.1962	-29.3515	
4	1	3	-0.115	0	-9.9036	-28.1262	
5	1	3	0	0	-9.1962	-26.901	
6	1	3	-0.115	0	-9.9036	-25.6757	
7	1	3	0	0	-9.1962	-24.4505	
8	1	3	-0.115	0	-9.9036	-23.2252	
9	1	3	0	0	-9.1962	-22	
10	1	13	0.15	0	-9.9036	-20.7747	
11	1	3	0	0	-9.1962	-19.5495	
12	1	3	-0.115	0	-9.9036	-18.3242	
13	1	3	0	0	-9.1962	-17.099	
14	1	13	0.15	0	-9.9036	-15.8737	
15	1	3	0	0	-9.1962	-14.6485	
16	1	3	-0.115	0	-9.9036	-13.4232	
17	1	3	-0.115	0	-9.1962	-12.198	
18	1	13	0.15	0	-7.7814	-31.802	
19	1	3	0	0	-7.074	-30.5767	
20	1	3	0	0	-7.7814	-29.3515	
21	1	3	0	0	-7.074	-28.1262	
22	1	3	0	0	-7.7814	-26.901	
23	1	3	0	0	-7.074	-25.6757	
24	1	3	0	0	-7.7814	-24.4505	
25	1	3	0	0	-7.074	-23.2252	
26	1	5	0.265	0	-7.7814	-22	
27	1	5	0.265	0	-7.074	-20.7747	
28	1	3	0	0	-7.7814	-19.5495	
29	1	3	0	0	-7.074	-18.3242	
30	1	3	0	0	-7.7814	-17.099	
31	1	3	0	0	-7.074	-15.8737	
32	1	3	0	0	-7.7814	-14.6485	
33	1	3	0	0	-7.074	-13.4232	
34	1	3	-0.115	0	-7.7814	-12.198	
35	1	13	0.15	0	-4.9518	-31.802	
36	1	5	0.265	0	-5.6592	-30.5767	
37	1	5	0.265	0	-4.9518	-29.3515	
38	1	5	0.265	0	-5.6592	-28.1262	
39	1	5	0.265	0	-4.9518	-26.901	
40	1	3	0	0	-5.6592	-25.6757	
41	1	5	0.265	0	-4.9518	-24.4505	
42	1	3	0	0	-5.6592	-23.2252	
43	1	5	0.265	0	-4.9518	-22	
44	1	5	0.265	0	-5.6592	-20.7747	
45	1	3	0	0	-4.9518	-19.5495	
46	1	3	0	0	-5.6592	-18.3242	
47	1	3	0	0	-4.9518	-17.099	
48	1	3	0	0	-5.6592	-15.8737	
49	1	3	0	0	-4.9518	-14.6485	
50	1	3	0	0	-5.6592	-13.4232	
51	1	13	0.15	0	-4.9518	-12.198	
52	1	3	-0.115	0	-3.537	-31.802	
53	1	3	0	0	-2.8296	-30.5767	
54	1	3	0	0	-3.537	-29.3515	
55	1	3	0	0	-2.8296	-28.1262	
56	1	5	0.265	0	-3.537	-26.901	
57	1	5	0.265	0	-2.8296	-25.6757	
58	1	5	0.265	0	-3.537	-24.4505	
59	1	5	0.265	0	-2.8296	-23.2252	
60	1	3	0	0	-3.537	-22	
61	1	3	0	0	-2.8296	-20.7747	
62	1	3	0	0	-3.537	-19.5495	
63	1	3	0	0	-2.8296	-18.3242	
64	1	3	0	0	-3.537	-17.099	
65	1	3	0	0	-2.8296	-15.8737	
66	1	3	0	0	-3.537	-14.6485	
67	1	3	0	0	-2.8296	-13.4232	
68	1	3	-0.115	0	-3.537	-12.198	
69	1	3	-0.115	0	-0.7074	-31.802	
70	1	3	0	0	-1.4148	-30.5767	
71	1	3	0	0	-0.7074	-29.3515	
72	1	5	0.265	0	-1.4148	-28.1262	
73	1	5	0.265	0	-0.7074	-26.901	
74	1	3	0	0	-1.4148	-25.6757	
75	1	5	0.265	0	-0.7074	-24.4505	
76	1	3	0	0	-1.4148	-23.2252	
77	1	3	0	0	-0.7074	-22	
78	1	3	0	0	-1.4148	-20.7747	
79	1	3	0	0	-0.7074	-19.5495	
80	1	3	0	0	-1.4148	-18.3242	
81	1	3	0	0	-0.7074	-17.099	
82	1	3	0	0	-1.4148	-15.8737	
83	1	3	0	0	-0.7074	-14.6485	
84	1	3	0	0	-1.4148	-13.4232	
85	1	13	0.15	0	-0.7074	-12.198	
86	1	3	-0.115	0	0.7074	-31.802	
87	1	3	0	0	1.4148	-30.5767	
88	1	5	0.265	0	0.7074	-29.3515	
89	1	5	0.265	0	1.4148	-28.1262	
90	1	3	0	0	0.7074	-26.901	
91	1	3	0	0	1.4148	-25.6757	
92	1	5	0.265	0	0.7074	-24.4505	
93	1	3	0	0	1.4148	-23.2252	
94	1	3	0	0	0.7074	-22	
95	1	3	0	0	1.4148	-20.7747	
96	1	3	0	0	0.7074	-19.5495	
97	1	3	0	0	1.4148	-18.3242	
98	1	3	0	0	0.7074	-17.099	
99	1	3	0	0	1.4148	-15.8737	
100	1	3	0	0	0.7074	-14.6485	
101	1	3	0	0	1.4148	-13.4232	
102	1	3	-0.115	0	0.7074	-12.198	
103	1	13	0.15	0	3.537	-31.802	
104	1	3	0	0	2.8296	-30.5767	
105	1	3	0	0	3.537	-29.3515	
106	1	3	0	0	2.8296	-28.1262	
107	1	5	0.265	0	3.537	-26.901	
108	1	5	0.265	0	2.8296	-25.6757	
109	1	3	0	0	3.537	-24.4505	
110	1	3	0	0	2.8296	-23.2252	
111	1	3	0	0	3.537	-22	
112	1	3	0	0	2.8296	-20.7747	
113	1	3	0	0	3.537	-19.5495	
114	1	3	0	0	2.8296	-18.3242	
115	1	3	0	0	3.537	-17.099	
116	1	3	0	0	2.8296	-15.8737	
117	1	3	0	0	3.537	-14.6485	
118	1	3	0	0	2.8296	-13.4232	
119	1	3	-0.115	0	3.537	-12.198	
120	1	13	0.15	0	4.9518	-31.802	
121	1	3	0	0	5.6592	-30.5767	
122	1	3	0	0	4.9518	-29.3515	
123	1	3	0	0	5.6592	-28.1262	
124	1	3	0	0	4.9518	-26.901	
125	1	5	0.265	0	5.6592	-25.6757	
126	1	5	0.265	0	4.9518	-24.4505	
127	1	3	0	0	5.6592	-23.2252	
128	1	3	0	0	4.9518	-22	
129	1	3	0	0	5.6592	-20.7747	
130	1	3	0	0	4.9518	-19.5495	
131	1	3	0	0	5.6592	-18.3242	
132	1	3	0	0	4.9518	-17.099	
133	1	3	0	0	5.6592	-15.8737	
134	1	3	0	0	4.9518	-14.6485	
135	1	3	0	0	5.6592	-13.4232	
136	1	3	-0.115	0	4.9518	-12.198	
137	1	3	-0.115	0	7.7814	-31.802	
138	1	3	0	0	7.074	-30.5767	
139	1	3	0	0	7.7814	-29.3515	
140	1	3	0	0	7.074	-28.1262	
141	1	3	0	0	7.7814	-26.901	
142	1	3	0	0	7.074	-25.6757	
143	1	3	0	0	7.7814	-24.4505	
144	1	3	0	0	7.074	-23.2252	
145	1	3	0	0	7.7814	-22	
146	1	3	0	0	7.074	-20.7747	
147	1	3	0	0	7.7814	-19.5495	
148	1	3	0	0	7.074	-18.3242	
149	1	3	0	0	7.7814	-17.099	
150	1	3	0	0	7.074	-15.8737	
151	1	3	0	0	7.7814	-14.6485	
152	1	3	0	0	7.074	-13.4232	
153	1	3	-0.115	0	7.7814	-12.198	
154	1	3	-0.115	0	9.1962	-31.802	
155	1	3	-0.115	0	9.9036	-30.5767	
156	1	3	0	0	9.1962	-29.3515	
157	1	3	-0.115	0	9.9036	-28.1262	
158	1	3	0	0	9.1962	-26.901	
159	1	3	-0.115	0	9.9036	-25.6757	
160	1	3	0	0	9.1962	-24.4505	
161	1	3	-0.115	0	9.9036	-23.2252	
162	1	3	0	0	9.1962	-22	
163	1	3	-0.115	0	9.9036	-20.7747	
164	1	3	0	0	9.1962	-19.5495	
165	1	13	0.15	0	9.9036	-18.3242	
166	1	3	0	0	9.1962	-17.099	
167	1	13	0.15	0	9.9036	-15.8737	
168	1	3	0	0	9.1962	-14.6485	
169	1	3	-0.115	0	9.9036	-13.4232	
170	1	13	0.15	0	9.1962	-12.198	
171	1	4	0.115	0	-10.9806	-30.5767	
172	1	4	0.115	0	-10.9806	-28.1262	
173	1	4	0.115	0	-10.9806	-25.6757	
174	1	4	0.115	0	-10.9806	-23.2252	
175	1	9	-0.585	0	-11.3036	-20.7747	
176	1	4	0.115	0	-10.9806	-18.3242	
177	1	9	-0.585	0	-11.3036	-15.8737	
178	1	4	0.115	0	-10.9806	-13.4232	
179	1	4	0.115	0	10.9806	-30.5767	
180	1	4	0.115	0	10.9806	-28.1262	
181	1	4	0.115	0	10.9806	-25.6757	
182	1	4	0.115	0	10.9806	-23.2252	
183	1	4	0.115	0	10.9806	-20.7747	
184	1	9	-0.585	0	11.3036	-18.3242	
185	1	9	-0.585	0	11.3036	-15.8737	
186	1	4	0.115	0	10.9806	-13.4232	
187	1	4	0.115	0	-9.7347	-32.7347	
188	1	9	-0.585	0	-7.0814	-33.0144	
189	1	4	0.115	0	-9.7347	-11.2652	
190	1	4	0.115	0	-7.2429	-11.2652	
191	1	9	-0.585	0	-5.6518	-33.0144	
192	1	4	0.115	0	-2.9985	-32.7347	
193	1	9	-0.585	0	-5.6518	-10.9855	
194	1	4	0.115	0	-2.9985	-11.2652	
195	1	4	0.115	0	-1.2459	-32.7347	
196	1	4	0.115	0	1.2459	-32.7347	
197	1	9	-0.585	0	-1.4074	-10.9855	
198	1	4	0.115	0	1.2459	-11.2652	
199	1	9	-0.585	0	2.837	-33.0144	
200	1	9	-0.585	0	5.6518	-33.0144	
201	1	4	0.115	0	2.9985	-11.2652	
202	1	4	0.115	0	5.4903	-11.2652	
203	1	4	0.115	0	7.2429	-32.7347	
204	1	4	0.115	0	9.7347	-32.7347	
205	1	4	0.115	0	7.2429	-11.2652	
206	1	9	-0.585	0	9.8962	-10.9855	
207	1	7	0.435	-0.7	-12.0036	-20.7747	
208	1	7	0.435	-0.7	-12.0036	-15.8737	
209	1	7	0.435	-0.7	12.0036	-18.3242	
210	1	7	0.435	0.7	12.0036	-15.8737	
211	1	7	0.435	-0.7	-6.7314	-33.6207	
212	1	7	0.435	-0.7	-6.0018	-33.6207	
213	1	7	0.435	-0.7	-6.0018	-10.3793	
214	1	7	0.435	-0.7	-1.7574	-10.3793	
215	1	7	0.435	0.7	2.487	-33.6207	
216	1	7	0.435	0.7	6.0018	-33.6207	
217	1	7	0.435	0.7	10.2462	-10.3793	
218	1	6	-0.683	1.4	-4.9518	-29.3515	
219	1	7	0.418	2.4	-4.9518	-29.3515	
220	1	6	-0.683	-1.4	-5.6592	-30.5767	
221	1	7	0.418	-2.4	-5.6592	-30.5767	
222	1	6	-0.683	1.4	-5.6592	-28.1262	
223	1	7	0.418	2.4	-5.6592	-28.1262	
224	1	6	-0.683	-1.4	-1.4148	-28.1262	
225	1	7	0.418	-2.4	-1.4148	-28.1262	
226	1	6	-0.683	-1.4	-4.9518	-26.901	
227	1	7	0.418	-2.4	-4.9518	-26.901	
228	1	6	-0.683	1.4	-2.8296	-25.6757	
229	1	7	0.418	2.4	-2.8296	-25.6757	
230	1	6	-0.683	1.4	0.7074	-29.3515	
231	1	7	0.418	2.4	0.7074	-29.3515	
232	1	6	-0.683	-1.4	-0.7074	-26.901	
233	1	7	0.418	-2.4	-0.7074	-26.901	
234	1	6	-0.683	1.4	0.7074	-24.4505	
235	1	7	0.418	2.4	0.7074	-24.4505	
236	1	6	-0.683	-1.4	1.4148	-28.1262	
237	1	7	0.418	-2.4	1.4148	-28.1262	
238	1	6	-0.683	1.4	-0.7074	-24.4505	
239	1	7	0.418	2.4	-0.7074	-24.4505	
240	1	6	-0.683	-1.4	-3.537	-24.4505	
241	1	7	0.418	-2.4	-3.537	-24.4505	
242	1	6	-0.683	1.4	-4.9518	-24.4505	
243	1	7	0.418	2.4	-4.9518	-24.4505	
244	1	6	-0.683	-1.4	-4.9518	-22	
245	1	7	0.418	-2.4	-4.9518	-22	
246	1	6	-0.683	-1.4	-3.537	-26.901	
247	1	7	0.418	-2.4	-3.537	-26.901	
248	1	6	-0.683	-1.4	2.8296	-25.6757	
249	1	7	0.418	-2.4	2.8296	-25.6757	
250	1	6	-0.683	1.4	-7.7814	-22	
251	1	7	0.418	2.4	-7.7814	-22	
252	1	6	-0.683	1.4	3.537	-26.901	
253	1	7	0.418	2.4	3.537	-26.901	
254	1	6	-0.683	1.4	4.9518	-24.4505	
255	1	7	0.418	2.4	4.9518	-24.4505	
256	1	6	-0.683	-1.4	-7.074	-20.7747	
257	1	7	0.418	-2.4	-7.074	-20.7747	
258	1	6	-0.683	1.4	5.6592	-25.6757	
259	1	7	0.418	2.4	5.6592	-25.6757	
260	1	6	-0.683	1.4	-5.6592	-20.7747	
261	1	7	0.418	2.4	-5.6592	-20.7747	
262	1	6	-0.683	-1.4	-2.8296	-23.2252	
263	1	7	0.418	-2.4	-2.8296	-23.2252	
264	2	1	-0.8476	-26.3379	-26.3553	-46.0381	
265	2	2	0.4238	-25.3379	-26.3553	-46.0381	
266	2	2	0.4238	-26.6712	-25.4125	-46.0381	
267	3	1	-0.8476	-22.9545	-26.3342	-45.958	
268	3	2	0.4238	-21.9545	-26.3342	-45.958	
269	3	2	0.4238	-23.2878	-25.3914	-45.958	
270	4	1	-0.8476	-19.5927	-26.3267	-45.9782	
271	4	2	0.4238	-18.5927	-26.3267	-45.9782	
272	4	2	0.4238	-19.926	-25.3839	-45.9782	
273	5	1	-0.8476	-16.1426	-26.3947	-45.9751	
274	5	2	0.4238	-15.1426	-26.3947	-45.9751	
275	5	2	0.4238	-16.4759	-25.4519	-45.9751	
276	6	1	-0.8476	-12.7476	-26.3943	-45.9822	
277	6	2	0.4238	-11.7476	-26.3943	-45.9822	
278	6	2	0.4238	-13.0809	-25.4515	-45.9822	
279	7	1	-0.8476	-9.395	-26.3382	-46.0443	
280	7	2	0.4238	-8.395	-26.3382	-46.0443	
281	7	2	0.4238	-9.7283	-25.3954	-46.0443	
282	8	1	-0.8476	-5.9452	-26.343	-46.0454	
283	8	2	0.4238	-4.9452	-26.343	-46.0454	
284	8	2	0.4238	-6.2785	-25.4002	-46.0454	
285	9	1	-0.8476	-2.5388	-26.3413	-46.0381	
286	9	2	0.4238	-1.5388	-26.3413	-46.0381	
287	9	2	0.4238	-2.8721	-25.3985	-46.0381	
288	10	1	-0.8476	0.87158	-26.3766	-45.9753	
289	10	2	0.4238	1.8716	-26.3766	-45.9753	
290	10	2	0.4238	0.53827	-25.4338	-45.9753	
291	11	1	-0.8476	4.2423	-26.3369	-46.0129	
292	11	2	0.4238	5.2423	-26.3369	-46.0129	
293	11	2	0.4238	3.909	-25.3941	-46.0129	
294	12	1	-0.8476	7.6663	-26.3485	-45.9838	
295	12	2	0.4238	8.6663	-26.3485	-45.9838	
296	12	2	0.4238	7.333	-25.4057	-45.9838	
297	13	1	-0.8476	11.082	-26.3256	-45.9767	
298	13	2	0.4238	12.082	-26.3256	-45.9767	
299	13	2	0.4238	10.7487	-25.3828	-45.9767	
300	14	1	-0.8476	14.4675	-26.3977	-45.9615	
301	14	2	0.4238	15.4675	-26.3977	-45.9615	
302	14	2	0.4238	14.1342	-25.4549	-45.9615	
303	15	1	-0.8476	17.8524	-26.369	-46.034	
304	15	2	0.4238	18.8524	-26.369	-46.034	
305	15	2	0.4238	17.5191	-25.4262	-46.034	
306	16	1	-0.8476	21.2127	-26.3604	-46.0437	
307	16	2	0.4238	22.2127	-26.3604	-46.0437	
308	16	2	0.4238	20.8794	-25.4176	-46.0437	
309	17	1	-0.8476	24.6358	-26.358	-46.0305	
310	17	2	0.4238	25.6358	-26.358	-46.0305	
311	17	2	0.4238	24.3025	-25.4152	-46.0305	
312	18	1	-0.8476	-26.3701	-22.9324	-45.9842	
313	18	2	0.4238	-25.3701	-22.9324	-45.9842	
314	18	2	0.4238	-26.7034	-21.9896	-45.9842	
315	19	1	-0.8476	-22.9267	-22.9422	-45.9919	
316	19	2	0.4238	-21.9267	-22.9422	-45.9919	
317	19	2	0.4238	-23.26	-21.9994	-45.9919	
318	20	1	-0.8476	-19.5383	-22.9733	-45.9872	
319	20	2	0.4238	-18.5383	-22.9733	-45.9872	
320	20	2	0.4238	-19.8716	-22.0305	-45.9872	
321	21	1	-0.8476	-16.1346	-22.915	-46.0493	
322	21	2	0.4238	-15.1346	-22.915	-46.0493	
323	21	2	0.4238	-16.468	-21.9722	-46.0493	
324	22	1	-0.8476	-12.7339	-22.9033	-46.0044	
325	22	2	0.4238	-11.7339	-22.9033	-46.0044	
326	22	2	0.4238	-13.0672	-21.9605	-46.0044	
327	23	1	-0.8476	-9.3752	-22.9863	-45.9943	
328	23	2	0.4238	-8.3752	-22.9863	-45.9943	
329	23	2	0.4238	-9.7085	-22.0435	-45.9943	
330	24	1	-0.8476	-5.9679	-22.9134	-45.9783	
331	24	2	0.4238	-4.9679	-22.9134	-45.9783	
332	24	2	0.4238	-6.3012	-21.9706	-45.9783	
333	25	1	-0.8476	-2.5984	-22.9369	-46.01	
334	25	2	0.4238	-1.5984	-22.9369	-46.01	
335	25	2	0.4238	-2.9317	-21.9941	-46.01	
336	26	1	-0.8476	0.82632	-22.9771	-46.0019	
337	26	2	0.4238	1.8263	-22.9771	-46.0019	
338	26	2	0.4238	0.49301	-22.0343	-46.0019	
339	27	1	-0.8476	4.2346	-22.9716	-46.0096	
340	27	2	0.4238	5.2346	-22.9716	-46.0096	
341	27	2	0.4238	3.9013	-22.0288	-46.0096	
342	28	1	-0.8476	7.6925	-22.984	-46.0365	
343	28	2	0.4238	8.6925	-22.984	-46.0365	
344	28	2	0.4238	7.3591	-22.0412	-46.0365	
345	29	1	-0.8476	11.0261	-22.9085	-45.9921	
346	29	2	0.4238	12.0261	-22.9085	-45.9921	
347	29	2	0.4238	10.6928	-21.9657	-45.9921	
348	30	1	-0.8476	14.4044	-22.9756	-45.9766	
349	30	2	0.4238	15.4044	-22.9756	-45.9766	
350	30	2	0.4238	14.0711	-22.0328	-45.9766	
351	31	1	-0.8476	17.8502	-22.9266	-46.0458	
352	31	2	0.4238	18.8502	-22.9266	-46.0458	
353	31	2	0.4238	17.5169	-21.9838	-46.0458	
354	32	1	-0.8476	21.2401	-22.9653	-46.0196	
355	32	2	0.4238	22.2401	-22.9653	-46.0196	
356	32	2	0.4238	20.9068	-22.0225	-46.0196	
357	33	1	-0.8476	24.6752	-22.9122	-46.0094	
358	33	2	0.4238	25.6752	-22.9122	-46.0094	
359	33	2	0.4238	24.3419	-21.9694	-46.0094	
360	34	1	-0.8476	-26.3655	-19.5702	-45.9786	
361	34	2	0.4238	-25.3655	-19.5702	-45.9786	
362	34	2	0.4238	-26.6988	-18.6274	-45.9786	
363	35	1	-0.8476	-22.9749	-19.5559	-45.9845	
364	35	2	0.4238	-21.9749	-19.5559	-45.9845	
365	35	2	0.4238	-23.3082	-18.6131	-45.9845	
366	36	1	-0.8476	-19.5545	-19.5811	-45.9878	
367	36	2	0.4238	-18.5545	-19.5811	-45.9878	
368	36	2	0.4238	-19.8878	-18.6383	-45.9878	
369	37	1	-0.8476	-16.1533	-19.5651	-45.9795	
370	37	2	0.4238	-15.1533	-19.5651	-45.9795	
371	37	2	0.4238	-16.4866	-18.6223	-45.9795	
372	38	1	-0.8476	-12.7897	-19.581	-46.0328	
373	38	2	0.4238	-11.7897	-19.581	-46.0328	
374	38	2	0.4238	-13.123	-18.6382	-46.0328	
375	39	1	-0.8476	-9.3113	-19.5888	-45.9978	
376	39	2	0.4238	-8.3113	-19.5888	-45.9978	
377	39	2	0.4238	-9.6447	-18.646	-45.9978	
378	40	1	-0.8476	-5.9503	-19.5162	-45.9968	
379	40	2	0.4238	-4.9503	-19.5162	-45.9968	
380	40	2	0.4238	-6.2836	-18.5734	-45.9968	
381	41	1	-0.8476	-2.5775	-19.5975	-45.9967	
382	41	2	0.4238	-1.5775	-19.5975	-45.9967	
383	41	2	0.4238	-2.9109	-18.6547	-45.9967	
384	42	1	-0.8476	0.86365	-19.552	-45.9883	
385	42	2	0.4238	1.8637	-19.552	-45.9883	
386	42	2	0.4238	0.53034	-18.6092	-45.9883	
387	43	1	-0.8476	4.2653	-19.545	-45.9887	
388	43	2	0.4238	5.2653	-19.545	-45.9887	
389	43	2	0.4238	3.932	-18.6022	-45.9887	
390	44	1	-0.8476	7.6583	-19.5171	-45.9979	
391	44	2	0.4238	8.6583	-19.5171	-45.9979	
392	44	2	0.4238	7.325	-18.5743	-45.9979	
393	45	1	-0.8476	11.0662	-19.5274	-46.0403	
394	45	2	0.4238	12.0662	-19.5274	-46.0403	
395	45	2	0.4238	10.7329	-18.5846	-46.0403	
396	46	1	-0.8476	14.4028	-19.5499	-46.0103	
397	46	2	0.4238	15.4028	-19.5499	-46.0103	
398	46	2	0.4238	14.0695	-18.6071	-46.0103	
399	47	1	-0.8476	17.8487	-19.5532	-46.0077	
400	47	2	0.4238	18.8487	-19.5532	-46.0077	
401	47	2	0.4238	17.5154	-18.6104	-46.0077	
402	48	1	-0.8476	21.2873	-19.526	-45.9612	
403	48	2	0.4238	22.2873	-19.526	-45.9612	
404	48	2	0.4238	20.954	-18.5832	-45.9612	
405	49	1	-0.8476	24.6556	-19.5431	-46.0146	
406	49	2	0.4238	25.6556	-19.5431	-46.0146	
407	49	2	0.4238	24.3223	-18.6003	-46.0146	
408	50	1	-0.8476	-26.3167	-16.1267	-46.0319	
409	50	2	0.4238	-25.3167	-16.1267	-46.0319	
410	50	2	0.4238	-26.65	-15.1839	-46.0319	
411	51	1	-0.8476	-22.9863	-16.1344	-45.9768	
412	51	2	0.4238	-21.9863	-16.1344	-45.9768	
413	51	2	0.4238	-23.3197	-15.1916	-45.9768	
414	52	1	-0.8476	-19.5468	-16.1549	-45.9889	
415	52	2	0.4238	-18.5468	-16.1549	-45.9889	
416	52	2	0.4238	-19.8801	-15.2121	-45.9889	
417	53	1	-0.8476	-16.1328	-16.1561	-46.003	
418	53	2	0.4238	-15.1328	-16.1561	-46.003	
419	53	2	0.4238	-16.4661	-15.2133	-46.003	
420	54	1	-0.8476	-12.7048	-16.1385	-45.9804	
421	54	2	0.4238	-11.7048	-16.1385	-45.9804	
422	54	2	0.4238	-13.0381	-15.1957	-45.9804	
423	55	1	-0.8476	-9.3259	-16.1558	-46.0053	
424	55	2	0.4238	-8.3259	-16.1558	-46.0053	
425	55	2	0.4238	-9.6592	-15.213	-46.0053	
426	56	1	-0.8476	-5.9778	-16.1307	-45.9668	
427	56	2	0.4238	-4.9778	-16.1307	-45.9668	
428	56	2	0.4238	-6.3111	-15.1879	-45.9668	
429	57	1	-0.8476	-2.5428	-16.1103	-46.016	
430	57	2	0.4238	-1.5428	-16.1103	-46.016	
431	57	2	0.4238	-2.8761	-15.1675	-46.016	
432	58	1	-0.8476	0.84703	-16.1806	-45.9831	
433	58	2	0.4238	1.847	-16.1806	-45.9831	
434	58	2	0.4238	0.51372	-15.2378	-45.9831	
435	59	1	-0.8476	4.2265	-16.174	-46.0074	
436	59	2	0.4238	5.2265	-16.174	-46.0074	
437	59	2	0.4238	3.8932	-15.2312	-46.0074	
438	60	1	-0.8476	7.6332	-16.1778	-45.9504	
439	60	2	0.4238	8.6332	-16.1778	-45.9504	
440	60	2	0.4238	7.2999	-15.235	-45.9504	
441	61	1	-0.8476	11.0822	-16.1623	-46.0038	
442	61	2	0.4238	12.0822	-16.1623	-46.0038	
443	61	2	0.4238	10.7489	-15.2195	-46.0038	
444	62	1	-0.8476	14.4019	-16.1684	-46.0453	
445	62	2	0.4238	15.4019	-16.1684	-46.0453	
446	62	2	0.4238	14.0686	-15.2256	-46.0453	
447	63	1	-0.8476	17.8816	-16.1681	-45.9942	
448	63	2	0.4238	18.8816	-16.1681	-45.9942	
449	63	2	0.4238	17.5483	-15.2253	-45.9942	
450	64	1	-0.8476	21.2518	-16.1035	-46.0027	
451	64	2	0.4238	22.2518	-16.1035	-46.0027	
452	64	2	0.4238	20.9185	-15.1607	-46.0027	
453	65	1	-0.8476	24.6082	-16.1716	-46.033	
454	65	2	0.4238	25.6082	-16.1716	-46.033	
455	65	2	0.4238	24.2749	-15.2288	-46.033	
456	66	1	-0.8476	-26.3407	-12.7865	-46.0143	
457	66	2	0.4238	-25.3407	-12.7865	-46.0143	
458	66	2	0.4238	-26.674	-11.8437	-46.0143	
459	67	1	-0.8476	-22.9484	-12.7034	-46.0273	
460	67	2	0.4238	-21.9484	-12.7034	-46.0273	
461	67	2	0.4238	-23.2817	-11.7606	-46.0273	
462	68	1	-0.8476	-19.5308	-12.7603	-46.0051	
463	68	2	0.4238	-18.5308	-12.7603	-46.0051	
464	68	2	0.4238	-19.8641	-11.8175	-46.0051	
465	69	1	-0.8476	-16.1525	-12.7315	-46.0195	
466	69	2	0.4238	-15.1525	-12.7315	-46.0195	
467	69	2	0.4238	-16.4858	-11.7887	-46.0195	
468	70	1	-0.8476	-12.7636	-12.7527	-46.002	
469	70	2	0.4238	-11.7636	-12.7527	-46.002	
470	70	2	0.4238	-13.0969	-11.8099	-46.002	
471	71	1	-0.8476	-9.3025	-12.7224	-46.0339	
472	71	2	0.4238	-8.3025	-12.7224	-46.0339	
473	71	2	0.4238	-9.6358	-11.7796	-46.0339	
474	72	1	-0.8476	-5.9019	-12.7817	-45.9912	
475	72	2	0.4238	-4.9019	-12.7817	-45.9912	
476	72	2	0.4238	-6.2352	-11.8389	-45.9912	
477	73	1	-0.8476	-2.5457	-12.7968	-46.0473	
478	73	2	0.4238	-1.5457	-12.7968	-46.0473	
479	73	2	0.4238	-2.879	-11.854	-46.0473	
480	74	1	-0.8476	0.87699	-12.7781	-46.0229	
481	74	2	0.4238	1.877	-12.7781	-46.0229	
482	74	2	0.4238	0.54368	-11.8353	-46.0229	
483	75	1	-0.8476	4.226	-12.7833	-46.0499	
484	75	2	0.4238	5.226	-12.7833	-46.0499	
485	75	2	0.4238	3.8927	-11.8405	-46.0499	
486	76	1	-0.8476	7.676	-12.7015	-45.9985	
487	76	2	0.4238	8.676	-12.7015	-45.9985	
488	76	2	0.4238	7.3427	-11.7587	-45.9985	
489	77	1	-0.8476	11.0569	-12.7913	-46.0187	
490	77	2	0.4238	12.0569	-12.7913	-46.0187	
491	77	2	0.4238	10.7236	-11.8485	-46.0187	
492	78	1	-0.8476	14.4679	-12.7473	-46.0347	
493	78	2	0.4238	15.4679	-12.7473	-46.0347	
494	78	2	0.4238	14.1346	-11.8045	-46.0347	
495	79	1	-0.8476	17.8463	-12.7782	-46.0077	
496	79	2	0.4238	18.8463	-12.7782	-46.0077	
497	79	2	0.4238	17.513	-11.8354	-46.0077	
498	80	1	-0.8476	21.2296	-12.7879	-45.9861	
499	80	2	0.4238	22.2296	-12.7879	-45.9861	
500	80	2	0.4238	20.8963	-11.8451	-45.9861	
501	81	1	-0.8476	24.6701	-12.7811	-45.9856	
502	81	2	0.4238	25.6701	-12.7811	-45.9856	
503	81	2	0.4238	24.3368	-11.8383	-45.9856	
504	82	1	-0.8476	-26.3559	-9.3894	-45.9768	
505	82	2	0.4238	-25.3559	-9.3894	-45.9768	
506	82	2	0.4238	-26.6892	-8.4466	-45.9768	
507	83	1	-0.8476	-22.9829	-9.38	-45.9762	
508	83	2	0.4238	-21.9829	-9.38	-45.9762	
509	83	2	0.4238	-23.3162	-8.4372	-45.9762	
510	84	1	-0.8476	-19.5285	-9.3827	-46.0304	
511	84	2	0.4238	-18.5285	-9.3827	-46.0304	
512	84	2	0.4238	-19.8618	-8.4399	-46.0304	
513	85	1	-0.8476	-16.1153	-9.3111	-46.0245	
514	85	2	0.4238	-15.1153	-9.3111	-46.0245	
515	85	2	0.4238	-16.4486	-8.3683	-46.0245	
516	86	1	-0.8476	-12.7115	-9.3742	-46.0063	
517	86	2	0.4238	-11.7115	-9.3742	-46.0063	
518	86	2	0.4238	-13.0448	-8.4314	-46.0063	
519	87	1	-0.8476	-9.3099	-9.3467	-45.9737	
520	87	2	0.4238	-8.3099	-9.3467	-45.9737	
521	87	2	0.4238	-9.6432	-8.4039	-45.9737	
522	88	1	-0.8476	-5.9869	-9.3066	-45.9997	
523	88	2	0.4238	-4.9869	-9.3066	-45.9997	
524	88	2	0.4238	-6.3202	-8.3638	-45.9997	
525	89	1	-0.8476	-2.5254	-9.3785	-46.0325	
526	89	2	0.4238	-1.5254	-9.3785	-46.0325	
527	89	2	0.4238	-2.8587	-8.4357	-46.0325	
528	90	1	-0.8476	0.87098	-9.3081	-46.0449	
529	90	2	0.4238	1.871	-9.3081	-46.0449	
530	90	2	0.4238	0.53767	-8.3653	-46.0449	
531	91	1	-0.8476	4.2741	-9.3188	-46.0277	
532	91	2	0.4238	5.2741	-9.3188	-46.0277	
533	91	2	0.4238	3.9408	-8.376	-46.0277	
534	92	1	-0.8476	7.6682	-9.3863	-46.0291	
535	92	2	0.4238	8.6682	-9.3863	-46.0291	
536	92	2	0.4238	7.3349	-8.4435	-46.0291	
537	93	1	-0.8476	11.0136	-9.3255	-46.0475	
538	93	2	0.4238	12.0136	-9.3255	-46.0475	
539	93	2	0.4238	10.6803	-8.3827	-46.0475	
540	94	1	-0.8476	14.4673	-9.3601	-46.007	
541	94	2	0.4238	15.4673	-9.3601	-46.007	
542	94	2	0.4238	14.1339	-8.4173	-46.007	
543	95	1	-0.8476	17.8787	-9.3088	-45.9528	
544	95	2	0.4238	18.8787	-9.3088	-45.9528	
545	95	2	0.4238	17.5453	-8.366	-45.9528	
546	96	1	-0.8476	21.2543	-9.3074	-46.0097	
547	96	2	0.4238	22.2543	-9.3074	-46.0097	
548	96	2	0.4238	20.921	-8.3646	-46.0097	
549	97	1	-0.8476	24.6135	-9.3966	-46.0183	
550	97	2	0.4238	25.6135	-9.3966	-46.0183	
551	97	2	0.4238	24.2802	-8.4538	-46.0183	
552	98	1	-0.8476	-26.3523	-5.9734	-45.9957	
553	98	2	0.4238	-25.3523	-5.9734	-45.9957	
554	98	2	0.4238	-26.6856	-5.0306	-45.9957	
555	99	1	-0.8476	-22.9548	-5.9204	-45.9785	
556	99	2	0.4238	-21.9548	-5.9204	-45.9785	
557	99	2	0.4238	-23.2881	-4.9776	-45.9785	
558	100	1	-0.8476	-19.5804	-5.9303	-46.0335	
559	100	2	0.4238	-18.5804	-5.9303	-46.0335	
560	100	2	0.4238	-19.9137	-4.9875	-46.0335	
561	101	1	-0.8476	-16.1001	-5.969	-46.0031	
562	101	2	0.4238	-15.1001	-5.969	-46.0031	
563	101	2	0.4238	-16.4334	-5.0262	-46.0031	
564	102	1	-0.8476	-12.757	-5.9667	-46.0219	
565	102	2	0.4238	-11.757	-5.9667	-46.0219	
566	102	2	0.4238	-13.0903	-5.0239	-46.0219	
567	103	1	-0.8476	-9.3362	-5.9516	-46.0054	
568	103	2	0.4238	-8.3362	-5.9516	-46.0054	
569	103	2	0.4238	-9.6696	-5.0088	-46.0054	
570	104	1	-0.8476	-5.976	-5.9634	-46.0336	
571	104	2	0.4238	-4.976	-5.9634	-46.0336	
572	104	2	0.4238	-6.3093	-5.0206	-46.0336	
573	105	1	-0.8476	-2.5045	-5.9194	-46.0043	
574	105	2	0.4238	-1.5045	-5.9194	-46.0043	
575	105	2	0.4238	-2.8378	-4.9766	-46.0043	
576	106	1	-0.8476	0.81488	-5.9678	-46.0315	
577	106	2	0.4238	1.8149	-5.9678	-46.0315	
578	106	2	0.4238	0.48157	-5.025	-46.0315	
579	107	1	-0.8476	4.2443	-5.9493	-46.026	
580	107	2	0.4238	5.2443	-5.9493	-46.026	
581	107	2	0.4238	3.911	-5.0065	-46.026	
582	108	1	-0.8476	7.6764	-5.9057	-46.0103	
583	108	2	0.4238	8.6764	-5.9057	-46.0103	
584	108	2	0.4238	7.3431	-4.9629	-46.0103	
585	109	1	-0.8476	11.0657	-5.9684	-46.0432	
586	109	2	0.4238	12.0657	-5.9684	-46.0432	
587	109	2	0.4238	10.7324	-5.0256	-46.0432	
588	110	1	-0.8476	14.4015	-5.9191	-46.0268	
589	110	2	0.4238	15.4015	-5.9191	-46.0268	
590	110	2	0.4238	14.0682	-4.9763	-46.0268	
591	111	1	-0.8476	17.8689	-5.9857	-45.9691	
592	111	2	0.4238	18.8689	-5.9857	-45.9691	
593	111	2	0.4238	17.5356	-5.0429	-45.9691	
594	112	1	-0.8476	21.2287	-5.9947	-45.9732	
595	112	2	0.4238	22.2287	-5.9947	-45.9732	
596	112	2	0.4238	20.8954	-5.0519	-45.9732	
597	113	1	-0.8476	24.6688	-5.9513	-45.9602	
598	113	2	0.4238	25.6688	-5.9513	-45.9602	
599	113	2	0.4238	24.3355	-5.0085	-45.9602	
600	114	1	-0.8476	-26.3698	-2.5386	-45.9569	
601	114	2	0.4238	-25.3698	-2.5386	-45.9569	
602	114	2	0.4238	-26.7031	-1.5958	-45.9569	
603	115	1	-0.8476	-22.9139	-2.5974	-46.0232	
604	115	2	0.4238	-21.9139	-2.5974	-46.0232	
605	115	2	0.4238	-23.2472	-1.6546	-46.0232	
606	116	1	-0.8476	-19.5274	-2.5894	-46.0196	
607	116	2	0.4238	-18.5274	-2.5894	-46.0196	
608	116	2	0.4238	-19.8607	-1.6466	-46.0196	
609	117	1	-0.8476	-16.1248	-2.505	-46.025	
610	117	2	0.4238	-15.1248	-2.505	-46.025	
611	117	2	0.4238	-16.4581	-1.5622	-46.025	
612	118	1	-0.8476	-12.7737	-2.5215	-45.9706	
613	118	2	0.4238	-11.7737	-2.5215	-45.9706	
614	118	2	0.4238	-13.107	-1.5787	-45.9706	
615	119	1	-0.8476	-9.3912	-2.5417	-46.0119	
616	119	2	0.4238	-8.3912	-2.5417	-46.0119	
617	119	2	0.4238	-9.7245	-1.5989	-46.0119	
618	120	1	-0.8476	-5.9205	-2.5148	-45.9818	
619	120	2	0.4238	-4.9205	-2.5148	-45.9818	
620	120	2	0.4238	-6.2538	-1.572	-45.9818	
621	121	1	-0.8476	-2.5219	-2.5607	-45.9753	
622	121	2	0.4238	-1.5219	-2.5607	-45.9753	
623	121	2	0.4238	-2.8553	-1.6179	-45.9753	
624	122	1	-0.8476	0.85353	-2.5185	-46.0364	
625	122	2	0.4238	1.8535	-2.5185	-46.0364	
626	122	2	0.4238	0.52022	-1.5757	-46.0364	
627	123	1	-0.8476	4.2859	-2.5433	-46.0417	
628	123	2	0.4238	5.2859	-2.5433	-46.0417	
629	123	2	0.4238	3.9526	-1.6005	-46.0417	
630	124	1	-0.8476	7.6493	-2.5029	-46.0464	
631	124	2	0.4238	8.6493	-2.5029	-46.0464	
632	124	2	0.4238	7.316	-1.5601	-46.0464	
633	125	1	-0.8476	11.084	-2.5208	-46.0169	
634	125	2	0.4238	12.084	-2.5208	-46.0169	
635	125	2	0.4238	10.7507	-1.578	-46.0169	
636	126	1	-0.8476	14.4758	-2.5141	-45.9913	
637	126	2	0.4238	15.4758	-2.5141	-45.9913	
638	126	2	0.4238	14.1425	-1.5713	-45.9913	
639	127	1	-0.8476	17.8625	-2.5834	-45.9934	
640	127	2	0.4238	18.8625	-2.5834	-45.9934	
641	127	2	0.4238	17.5292	-1.6406	-45.9934	
642	128	1	-0.8476	21.2132	-2.5132	-46.0222	
643	128	2	0.4238	22.2132	-2.5132	-46.0222	
644	128	2	0.4238	20.8799	-1.5704	-46.0222	
645	129	1	-0.8476	24.6176	-2.5579	-45.9952	
646	129	2	0.4238	25.6176	-2.5579	-45.9952	
647	129	2	0.4238	24.2843	-1.6151	-45.9952	
648	130	1	-0.8476	-26.3138	0.8435	-46.0366	
649	130	2	0.4238	-25.3138	0.8435	-46.0366	
650	130	2	0.4238	-26.6471	1.7863	-46.0366	
651	131	1	-0.8476	-22.9497	0.87681	-46.0056	
652	131	2	0.4238	-21.9497	0.87681	-46.0056	
653	131	2	0.4238	-23.283	1.8196	-46.0056	
654	132	1	-0.8476	-19.5072	0.83848	-46.0477	
655	132	2	0.4238	-18.5072	0.83848	-46.0477	
656	132	2	0.4238	-19.8405	1.7813	-46.0477	
657	133	1	-0.8476	-16.1373	0.86256	-45.9564	
658	133	2	0.4238	-15.1373	0.86256	-45.9564	
659	133	2	0.4238	-16.4707	1.8054	-45.9564	
660	134	1	-0.8476	-12.7928	0.84147	-45.9678	
661	134	2	0.4238	-11.7928	0.84147	-45.9678	
662	134	2	0.4238	-13.1261	1.7843	-45.9678	
663	135	1	-0.8476	-9.3856	0.84352	-46.0266	
664	135	2	0.4238	-8.3856	0.84352	-46.0266	
665	135	2	0.4238	-9.7189	1.7863	-46.0266	
666	136	1	-0.8476	-5.9212	0.88535	-46.0417	
667	136	2	0.4238	-4.9212	0.88535	-46.0417	
668	136	2	0.4238	-6.2545	1.8282	-46.0417	
669	137	1	-0.8476	-2.5538	0.8266	-45.959	
670	137	2	0.4238	-1.5538	0.8266	-45.959	
671	137	2	0.4238	-2.8871	1.7694	-45.959	
672	138	1	-0.8476	0.88576	0.81524	-45.9588	
673	138	2	0.4238	1.8858	0.81524	-45.9588	
674	138	2	0.4238	0.55245	1.758	-45.9588	
675	139	1	-0.8476	4.2052	0.86646	-45.9951	
676	139	2	0.4238	5.2052	0.86646	-45.9951	
677	139	2	0.4238	3.8719	1.8093	-45.9951	
678	140	1	-0.8476	7.6471	0.81594	-46.0043	
679	140	2	0.4238	8.6471	0.81594	-46.0043	
680	140	2	0.4238	7.3138	1.7587	-46.0043	
681	141	1	-0.8476	11.0263	0.88961	-45.9843	
682	141	2	0.4238	12.0263	0.88961	-45.9843	
683	141	2	0.4238	10.693	1.8324	-45.9843	
684	142	1	-0.8476	14.4162	0.85176	-45.9984	
685	142	2	0.4238	15.4162	0.85176	-45.9984	
686	142	2	0.4238	14.0829	1.7946	-45.9984	
687	143	1	-0.8476	17.8817	0.82949	-46.0484	
688	143	2	0.4238	18.8817	0.82949	-46.0484	
689	143	2	0.4238	17.5483	1.7723	-46.0484	
690	144	1	-0.8476	21.2968	0.84226	-46.0492	
691	144	2	0.4238	22.2968	0.84226	-46.0492	
692	144	2	0.4238	20.9635	1.7851	-46.0492	
693	145	1	-0.8476	24.6965	0.88921	-45.9559	
694	145	2	0.4238	25.6965	0.88921	-45.9559	
695	145	2	0.4238	24.3632	1.832	-45.9559	
696	146	1	-0.8476	-26.3706	4.2508	-45.9607	
697	146	2	0.4238	-25.3706	4.2508	-45.9607	
698	146	2	0.4238	-26.7039	5.1936	-45.9607	
699	147	1	-0.8476	-22.965	4.2162	-46.0046	
700	147	2	0.4238	-21.965	4.2162	-46.0046	
701	147	2	0.4238	-23.2983	5.159	-46.0046	
702	148	1	-0.8476	-19.5736	4.2972	-46.017	
703	148	2	0.4238	-18.5736	4.2972	-46.017	
704	148	2	0.4238	-19.9069	5.24	-46.017	
705	149	1	-0.8476	-16.1048	4.2662	-45.9589	
706	149	2	0.4238	-15.1048	4.2662	-45.9589	
707	149	2	0.4238	-16.4381	5.209	-45.9589	
708	150	1	-0.8476	-12.7873	4.2315	-45.9765	
709	150	2	0.4238	-11.7873	4.2315	-45.9765	
710	150	2	0.4238	-13.1207	5.1743	-45.9765	
711	151	1	-0.8476	-9.3109	4.2601	-46.0335	
712	151	2	0.4238	-8.3109	4.2601	-46.0335	
713	151	2	0.4238	-9.6442	5.2029	-46.0335	
714	152	1	-0.8476	-5.9605	4.2859	-45.9645	
715	152	2	0.4238	-4.9605	4.2859	-45.9645	
716	152	2	0.4238	-6.2938	5.2287	-45.9645	
717	153	1	-0.8476	-2.5347	4.2463	-46.0434	
718	153	2	0.4238	-1.5347	4.2463	-46.0434	
719	153	2	0.4238	-2.868	5.1891	-46.0434	
720	154	1	-0.8476	0.86493	4.2564	-46.0351	
721	154	2	0.4238	1.8649	4.2564	-46.0351	
722	154	2	0.4238	0.53162	5.1992	-46.0351	
723	155	1	-0.8476	4.2948	4.2727	-46.0163	
724	155	2	0.4238	5.2948	4.2727	-46.0163	
725	155	2	0.4238	3.9615	5.2155	-46.0163	
726	156	1	-0.8476	7.6121	4.2337	-46.0299	
727	156	2	0.4238	8.6121	4.2337	-46.0299	
728	156	2	0.4238	7.2788	5.1765	-46.0299	
729	157	1	-0.8476	11.0435	4.2162	-46.0207	
730	157	2	0.4238	12.0435	4.2162	-46.0207	
731	157	2	0.4238	10.7102	5.159	-46.0207	
732	158	1	-0.8476	14.4415	4.2908	-45.9618	
733	158	2	0.4238	15.4415	4.2908	-45.9618	
734	158	2	0.4238	14.1082	5.2336	-45.9618	
735	159	1	-0.8476	17.8795	4.219	-45.9815	
736	159	2	0.4238	18.8795	4.219	-45.9815	
737	159	2	0.4238	17.5462	5.1618	-45.9815	
738	160	1	-0.8476	21.2186	4.2901	-46.0372	
739	160	2	0.4238	22.2186	4.2901	-46.0372	
740	160	2	0.4238	20.8853	5.2329	-46.0372	
741	161	1	-0.8476	24.6515	4.2644	-45.9721	
742	161	2	0.4238	25.6515	4.2644	-45.9721	
743	161	2	0.4238	24.3182	5.2072	-45.9721	
744	162	1	-0.8476	-26.3241	7.603	-46.0351	
745	162	2	0.4238	-25.3241	7.603	-46.0351	
746	162	2	0.4238	-26.6574	8.5458	-46.0351	
747	163	1	-0.8476	-22.9958	7.6993	-46.0335	
748	163	2	0.4238	-21.9958	7.6993	-46.0335	
749	163	2	0.4238	-23.3291	8.6421	-46.0335	
750	164	1	-0.8476	-19.5968	7.6548	-46.018	
751	164	2	0.4238	-18.5968	7.6548	-46.018	
752	164	2	0.4238	-19.9301	8.5976	-46.018	
753	165	1	-0.8476	-16.1123	7.6195	-46.0208	
754	165	2	0.4238	-15.1123	7.6195	-46.0208	
755	165	2	0.4238	-16.4456	8.5623	-46.0208	
756	166	1	-0.8476	-12.7389	7.6159	-45.9941	
757	166	2	0.4238	-11.7389	7.6159	-45.9941	
758	166	2	0.4238	-13.0722	8.5587	-45.9941	
759	167	1	-0.8476	-9.3666	7.6146	-45.9817	
760	167	2	0.4238	-8.3666	7.6146	-45.9817	